
     Program PWSCF v.7.2 starts on  2Mar2026 at 14:35:27 

     This program is part of the open-source Quantum ESPRESSO suite
     for quantum simulation of materials; please cite
         "P. Giannozzi et al., J. Phys.:Condens. Matter 21 395502 (2009);
         "P. Giannozzi et al., J. Phys.:Condens. Matter 29 465901 (2017);
         "P. Giannozzi et al., J. Chem. Phys. 152 154105 (2020);
          URL http://www.quantum-espresso.org", 
     in publications or presentations arising from this work. More details at
     http://www.quantum-espresso.org/quote

     Parallel version (MPI), running on     1 processors

     MPI processes distributed on     1 nodes
     3501 MiB available memory on the printing compute node when the environment starts

     Reading input from pw_scf.in

     Current dimensions of program PWSCF are:
     Max number of different atomic species (ntypx) = 10
     Max number of k-points (npk) =  40000
     Max angular momentum in pseudopotentials (lmaxx) =  4
     Message from routine setup:
     the system is metallic, specify occupations

     Subspace diagonalization in iterative solution of the eigenvalue problem:
     a serial algorithm will be used


     G-vector sticks info
     --------------------
     sticks:   dense  smooth     PW     G-vecs:    dense   smooth      PW
     Sum         949     949    293                22119    22119    3743

     Using Slab Decomposition



     bravais-lattice index     =            1
     lattice parameter (alat)  =      10.0000  a.u.
     unit-cell volume          =    1000.0000 (a.u.)^3
     number of atoms/cell      =            2
     number of atomic types    =            2
     number of electrons       =         9.00 (up:   5.00, down:   4.00)
     number of Kohn-Sham states=            6
     kinetic-energy cutoff     =      30.0000  Ry
     charge density cutoff     =     120.0000  Ry
     scf convergence threshold =      1.0E-08
     mixing beta               =       0.7000
     number of iterations used =            8  plain     mixing
     Exchange-correlation=  SLA  PW   PBX  PBC
                           (   1   4   3   4   0   0   0)

     celldm(1)=  10.000000  celldm(2)=   0.000000  celldm(3)=   0.000000
     celldm(4)=   0.000000  celldm(5)=   0.000000  celldm(6)=   0.000000

     crystal axes: (cart. coord. in units of alat)
               a(1) = (   1.000000   0.000000   0.000000 )  
               a(2) = (   0.000000   1.000000   0.000000 )  
               a(3) = (   0.000000   0.000000   1.000000 )  

     reciprocal axes: (cart. coord. in units 2 pi/alat)
               b(1) = (  1.000000  0.000000  0.000000 )  
               b(2) = (  0.000000  1.000000  0.000000 )  
               b(3) = (  0.000000  0.000000  1.000000 )  


     PseudoPot. # 1 for O  read from file:
     ../../test_pseudos/O.pbe-tm-new-gipaw.UPF
     MD5 check sum: cd70c9dcf1f7d755502eb127a1501eea
     Pseudo is Norm-conserving, Zval =  6.0
     Generated by new atomic code, or converted to UPF format
     Using radial grid of 1469 points,  1 beta functions with: 
                l(1) =   0

     PseudoPot. # 2 for C  read from file:
     ../../test_pseudos/C.pbe-tm-new-gipaw.UPF
     MD5 check sum: c9fa938d11269a3b0a4c160d8754c0f1
     Pseudo is Norm-conserving, Zval =  4.0
     Generated by new atomic code, or converted to UPF format
     Using radial grid of 1441 points,  1 beta functions with: 
                l(1) =   0

     atomic species   valence    mass     pseudopotential
        O              6.00    16.00000     O ( 1.00)
        C              4.00    12.00000     C ( 1.00)

     Starting magnetic structure 
     atomic species   magnetization
        O            0.000
        C            0.000

      8 Sym. Ops. (no inversion) found


                                    s                        frac. trans.

      isym =  1     identity                                     

 cryst.   s( 1) = (     1          0          0      )
                  (     0          1          0      )
                  (     0          0          1      )

 cart.    s( 1) = (  1.0000000  0.0000000  0.0000000 )
                  (  0.0000000  1.0000000  0.0000000 )
                  (  0.0000000  0.0000000  1.0000000 )


      isym =  2     180 deg rotation - cart. axis [0,0,1]        

 cryst.   s( 2) = (    -1          0          0      )
                  (     0         -1          0      )
                  (     0          0          1      )

 cart.    s( 2) = ( -1.0000000  0.0000000  0.0000000 )
                  (  0.0000000 -1.0000000  0.0000000 )
                  (  0.0000000  0.0000000  1.0000000 )


      isym =  3      90 deg rotation - cart. axis [0,0,-1]       

 cryst.   s( 3) = (     0         -1          0      )
                  (     1          0          0      )
                  (     0          0          1      )

 cart.    s( 3) = (  0.0000000  1.0000000  0.0000000 )
                  ( -1.0000000  0.0000000  0.0000000 )
                  (  0.0000000  0.0000000  1.0000000 )


      isym =  4      90 deg rotation - cart. axis [0,0,1]        

 cryst.   s( 4) = (     0          1          0      )
                  (    -1          0          0      )
                  (     0          0          1      )

 cart.    s( 4) = (  0.0000000 -1.0000000  0.0000000 )
                  (  1.0000000  0.0000000  0.0000000 )
                  (  0.0000000  0.0000000  1.0000000 )


      isym =  5     inv. 180 deg rotation - cart. axis [0,1,0]   

 cryst.   s( 5) = (     1          0          0      )
                  (     0         -1          0      )
                  (     0          0          1      )

 cart.    s( 5) = (  1.0000000  0.0000000  0.0000000 )
                  (  0.0000000 -1.0000000  0.0000000 )
                  (  0.0000000  0.0000000  1.0000000 )


      isym =  6     inv. 180 deg rotation - cart. axis [1,0,0]   

 cryst.   s( 6) = (    -1          0          0      )
                  (     0          1          0      )
                  (     0          0          1      )

 cart.    s( 6) = ( -1.0000000  0.0000000  0.0000000 )
                  (  0.0000000  1.0000000  0.0000000 )
                  (  0.0000000  0.0000000  1.0000000 )


      isym =  7     inv. 180 deg rotation - cart. axis [1,1,0]   

 cryst.   s( 7) = (     0         -1          0      )
                  (    -1          0          0      )
                  (     0          0          1      )

 cart.    s( 7) = (  0.0000000 -1.0000000  0.0000000 )
                  ( -1.0000000  0.0000000  0.0000000 )
                  (  0.0000000  0.0000000  1.0000000 )


      isym =  8     inv. 180 deg rotation - cart. axis [1,-1,0]  

 cryst.   s( 8) = (     0          1          0      )
                  (     1          0          0      )
                  (     0          0          1      )

 cart.    s( 8) = (  0.0000000  1.0000000  0.0000000 )
                  (  1.0000000  0.0000000  0.0000000 )
                  (  0.0000000  0.0000000  1.0000000 )


     point group C_4v (4mm) 
     there are  5 classes
     the character table:

       E     2C4   C2    2s_v  2s_d 
A_1    1.00  1.00  1.00  1.00  1.00
A_2    1.00  1.00  1.00 -1.00 -1.00
B_1    1.00 -1.00  1.00  1.00 -1.00
B_2    1.00 -1.00  1.00 -1.00  1.00
E      2.00  0.00 -2.00  0.00  0.00

     the symmetry operations in each class and the name of the first element:

     E        1
          identity                                               
     2C4      3    4
           90 deg rotation - cart. axis [0,0,-1]                 
     C2       2
          180 deg rotation - cart. axis [0,0,1]                  
     2s_v     5    6
          inv. 180 deg rotation - cart. axis [0,1,0]             
     2s_d     7    8
          inv. 180 deg rotation - cart. axis [1,1,0]             

   Cartesian axes

     site n.     atom                  positions (alat units)
         1           O   tau(   1) = (   0.0000000   0.0000000  -0.0001612  )
         2           C   tau(   2) = (   0.0000000   0.0000000   0.2133223  )

   Crystallographic axes

     site n.     atom                  positions (cryst. coord.)
         1           O   tau(   1) = (  0.0000000  0.0000000 -0.0001612  )
         2           C   tau(   2) = (  0.0000000  0.0000000  0.2133223  )

     number of k points=     6
                       cart. coord. in units 2pi/alat
        k(    1) = (   0.0000000   0.0000000   0.0000000), wk =   0.1250000
        k(    2) = (   0.0000000   0.0000000  -0.5000000), wk =   0.1250000
        k(    3) = (   0.0000000  -0.5000000  -0.5000000), wk =   0.2500000
        k(    4) = (  -0.5000000  -0.5000000  -0.5000000), wk =   0.1250000
        k(    5) = (  -0.5000000   0.0000000   0.0000000), wk =   0.2500000
        k(    6) = (  -0.5000000   0.5000000   0.0000000), wk =   0.1250000

                       cryst. coord.
        k(    1) = (   0.0000000   0.0000000   0.0000000), wk =   0.1250000
        k(    2) = (   0.0000000   0.0000000  -0.5000000), wk =   0.1250000
        k(    3) = (   0.0000000  -0.5000000  -0.5000000), wk =   0.2500000
        k(    4) = (  -0.5000000  -0.5000000  -0.5000000), wk =   0.1250000
        k(    5) = (  -0.5000000   0.0000000   0.0000000), wk =   0.2500000
        k(    6) = (  -0.5000000   0.5000000   0.0000000), wk =   0.1250000

     Dense  grid:    22119 G-vectors     FFT dimensions: (  36,  36,  36)

     Dynamical RAM for                 wfc:       0.25 MB

     Dynamical RAM for     wfc (w. buffer):       3.30 MB

     Dynamical RAM for           str. fact:       0.68 MB

     Dynamical RAM for           local pot:       0.00 MB

     Dynamical RAM for          nlocal pot:       0.08 MB

     Dynamical RAM for                qrad:       0.02 MB

     Dynamical RAM for          rho,v,vnew:       4.16 MB

     Dynamical RAM for               rhoin:       1.39 MB

     Dynamical RAM for            rho*nmix:      10.80 MB

     Dynamical RAM for           G-vectors:       1.43 MB

     Dynamical RAM for          h,s,v(r/c):       0.01 MB

     Dynamical RAM for          <psi|beta>:       0.00 MB

     Dynamical RAM for                 psi:       0.51 MB

     Dynamical RAM for                hpsi:       0.51 MB

     Dynamical RAM for      wfcinit/wfcrot:       1.36 MB

     Estimated static dynamical RAM per process >      14.21 MB

     Estimated max dynamical RAM per process >      26.37 MB
     Generating pointlists ...
     new r_m :   0.0881 (alat units)  0.8806 (a.u.) for type    1
     new r_m :   0.0881 (alat units)  0.8806 (a.u.) for type    2

     Initial potential from superposition of free atoms

     starting charge      10.0000, renormalised to       9.0000

     negative rho (up, down):  5.316E-03 5.316E-03
     Starting wfcs are   16 randomized atomic wfcs

     total cpu time spent up to now is        0.7 secs

     Self-consistent Calculation

     iteration #  1     ecut=    30.00 Ry     beta= 0.70
     Davidson diagonalization with overlap

---- Real-time Memory Report at c_bands before calling an iterative solver
           213 MiB given to the printing process from OS
             0 MiB allocation reported by mallinfo(arena+hblkhd)
          3482 MiB available memory on the node where the printing process lives
------------------
     ethr =  1.00E-04,  avg # of iterations =  4.0

     negative rho (up, down):  1.262E-03 1.359E-03

     total cpu time spent up to now is        0.8 secs

     total energy              =     -41.46448556 Ry
     estimated scf accuracy    <       0.94375891 Ry

     total magnetization       =     1.00 Bohr mag/cell
     absolute magnetization    =     1.00 Bohr mag/cell

     iteration #  2     ecut=    30.00 Ry     beta= 0.70
     Davidson diagonalization with overlap

---- Real-time Memory Report at c_bands before calling an iterative solver
           225 MiB given to the printing process from OS
             0 MiB allocation reported by mallinfo(arena+hblkhd)
          3466 MiB available memory on the node where the printing process lives
------------------
     ethr =  1.00E-02,  avg # of iterations =  4.0

     negative rho (up, down):  8.604E-04 9.415E-04

     total cpu time spent up to now is        0.9 secs

     total energy              =     -41.24100058 Ry
     estimated scf accuracy    <       3.20022005 Ry

     total magnetization       =     1.00 Bohr mag/cell
     absolute magnetization    =     1.05 Bohr mag/cell

     iteration #  3     ecut=    30.00 Ry     beta= 0.70
     Davidson diagonalization with overlap

---- Real-time Memory Report at c_bands before calling an iterative solver
           226 MiB given to the printing process from OS
             0 MiB allocation reported by mallinfo(arena+hblkhd)
          3468 MiB available memory on the node where the printing process lives
------------------
     ethr =  1.00E-02,  avg # of iterations =  3.0

     negative rho (up, down):  1.318E-04 1.634E-04

     total cpu time spent up to now is        1.0 secs

     total energy              =     -41.85742415 Ry
     estimated scf accuracy    <       0.06994129 Ry

     total magnetization       =     1.00 Bohr mag/cell
     absolute magnetization    =     1.06 Bohr mag/cell

     iteration #  4     ecut=    30.00 Ry     beta= 0.70
     Davidson diagonalization with overlap

---- Real-time Memory Report at c_bands before calling an iterative solver
           228 MiB given to the printing process from OS
             0 MiB allocation reported by mallinfo(arena+hblkhd)
          3464 MiB available memory on the node where the printing process lives
------------------
     ethr =  7.77E-04,  avg # of iterations =  2.0

     total cpu time spent up to now is        1.1 secs

     total energy              =     -41.85959050 Ry
     estimated scf accuracy    <       0.01888230 Ry

     total magnetization       =     1.00 Bohr mag/cell
     absolute magnetization    =     1.08 Bohr mag/cell

     iteration #  5     ecut=    30.00 Ry     beta= 0.70
     Davidson diagonalization with overlap

---- Real-time Memory Report at c_bands before calling an iterative solver
           229 MiB given to the printing process from OS
             0 MiB allocation reported by mallinfo(arena+hblkhd)
          3464 MiB available memory on the node where the printing process lives
------------------
     ethr =  2.10E-04,  avg # of iterations =  1.5

     negative rho (up, down):  1.447E-07 3.366E-07

     total cpu time spent up to now is        1.2 secs

     total energy              =     -41.86312988 Ry
     estimated scf accuracy    <       0.00022259 Ry

     total magnetization       =     1.00 Bohr mag/cell
     absolute magnetization    =     1.12 Bohr mag/cell

     iteration #  6     ecut=    30.00 Ry     beta= 0.70
     Davidson diagonalization with overlap

---- Real-time Memory Report at c_bands before calling an iterative solver
           230 MiB given to the printing process from OS
             0 MiB allocation reported by mallinfo(arena+hblkhd)
          3464 MiB available memory on the node where the printing process lives
------------------
     ethr =  2.47E-06,  avg # of iterations =  4.8

     negative rho (up, down):  1.197E-07 2.435E-07

     total cpu time spent up to now is        1.3 secs

     total energy              =     -41.86350792 Ry
     estimated scf accuracy    <       0.00042974 Ry

     total magnetization       =     1.00 Bohr mag/cell
     absolute magnetization    =     1.15 Bohr mag/cell

     iteration #  7     ecut=    30.00 Ry     beta= 0.70
     Davidson diagonalization with overlap

---- Real-time Memory Report at c_bands before calling an iterative solver
           232 MiB given to the printing process from OS
             0 MiB allocation reported by mallinfo(arena+hblkhd)
          3464 MiB available memory on the node where the printing process lives
------------------
     ethr =  2.47E-06,  avg # of iterations =  2.2

     total cpu time spent up to now is        1.3 secs

     total energy              =     -41.86371780 Ry
     estimated scf accuracy    <       0.00006121 Ry

     total magnetization       =     1.00 Bohr mag/cell
     absolute magnetization    =     1.17 Bohr mag/cell

     iteration #  8     ecut=    30.00 Ry     beta= 0.70
     Davidson diagonalization with overlap

---- Real-time Memory Report at c_bands before calling an iterative solver
           233 MiB given to the printing process from OS
             0 MiB allocation reported by mallinfo(arena+hblkhd)
          3456 MiB available memory on the node where the printing process lives
------------------
     ethr =  6.80E-07,  avg # of iterations =  2.6

     total cpu time spent up to now is        1.4 secs

     total energy              =     -41.86368284 Ry
     estimated scf accuracy    <       0.00011894 Ry

     total magnetization       =     1.00 Bohr mag/cell
     absolute magnetization    =     1.18 Bohr mag/cell

     iteration #  9     ecut=    30.00 Ry     beta= 0.70
     Davidson diagonalization with overlap

---- Real-time Memory Report at c_bands before calling an iterative solver
           234 MiB given to the printing process from OS
             0 MiB allocation reported by mallinfo(arena+hblkhd)
          3456 MiB available memory on the node where the printing process lives
------------------
     ethr =  6.80E-07,  avg # of iterations =  2.9

     total cpu time spent up to now is        1.5 secs

     total energy              =     -41.86371909 Ry
     estimated scf accuracy    <       0.00001123 Ry

     total magnetization       =     1.00 Bohr mag/cell
     absolute magnetization    =     1.19 Bohr mag/cell

     iteration # 10     ecut=    30.00 Ry     beta= 0.70
     Davidson diagonalization with overlap

---- Real-time Memory Report at c_bands before calling an iterative solver
           236 MiB given to the printing process from OS
             0 MiB allocation reported by mallinfo(arena+hblkhd)
          3458 MiB available memory on the node where the printing process lives
------------------
     ethr =  1.25E-07,  avg # of iterations =  1.0

     total cpu time spent up to now is        1.6 secs

     total energy              =     -41.86371786 Ry
     estimated scf accuracy    <       0.00000410 Ry

     total magnetization       =     1.00 Bohr mag/cell
     absolute magnetization    =     1.19 Bohr mag/cell

     iteration # 11     ecut=    30.00 Ry     beta= 0.70
     Davidson diagonalization with overlap

---- Real-time Memory Report at c_bands before calling an iterative solver
           236 MiB given to the printing process from OS
             0 MiB allocation reported by mallinfo(arena+hblkhd)
          3457 MiB available memory on the node where the printing process lives
------------------
     ethr =  4.55E-08,  avg # of iterations =  2.0

     total cpu time spent up to now is        1.7 secs

     total energy              =     -41.86371933 Ry
     estimated scf accuracy    <       0.00000017 Ry

     total magnetization       =     1.00 Bohr mag/cell
     absolute magnetization    =     1.19 Bohr mag/cell

     iteration # 12     ecut=    30.00 Ry     beta= 0.70
     Davidson diagonalization with overlap

---- Real-time Memory Report at c_bands before calling an iterative solver
           236 MiB given to the printing process from OS
             0 MiB allocation reported by mallinfo(arena+hblkhd)
          3448 MiB available memory on the node where the printing process lives
------------------
     ethr =  1.85E-09,  avg # of iterations =  3.0

     Magnetic moment per site  (integrated on atomic sphere of radius R)
     atom   1 (R=0.088)  charge=  2.4875  magn=  0.0044
     atom   2 (R=0.088)  charge=  0.8708  magn=  0.2531

     total cpu time spent up to now is        1.7 secs

     End of self-consistent calculation

 ------ SPIN UP ------------


          k = 0.0000 0.0000 0.0000 (  2777 PWs)   bands (ev):

   -32.9163 -16.6656 -13.3747 -13.3747 -13.2607  -3.9924

     occupation numbers 
     1.0000   1.0000   1.0000   1.0000   1.0000   0.0000

          k = 0.0000 0.0000-0.5000 (  2762 PWs)   bands (ev):

   -32.8990 -16.6707 -13.3728 -13.3728 -13.1418  -4.0387

     occupation numbers 
     1.0000   1.0000   1.0000   1.0000   1.0000   0.0000

          k = 0.0000-0.5000-0.5000 (  2752 PWs)   bands (ev):

   -32.9041 -16.6777 -13.3328 -13.3222 -13.1523  -4.0945

     occupation numbers 
     1.0000   1.0000   1.0000   1.0000   1.0000   0.0000

          k =-0.5000-0.5000-0.5000 (  2800 PWs)   bands (ev):

   -32.9138 -16.7041 -13.3970 -13.3970 -13.1950  -4.1161

     occupation numbers 
     1.0000   1.0000   1.0000   1.0000   1.0000   0.0000

          k =-0.5000 0.0000 0.0000 (  2762 PWs)   bands (ev):

   -32.9123 -16.6624 -13.3437 -13.3400 -13.2431  -4.0241

     occupation numbers 
     1.0000   1.0000   1.0000   1.0000   1.0000   0.0000

          k =-0.5000 0.5000 0.0000 (  2752 PWs)   bands (ev):

   -32.9049 -16.6460 -13.3725 -13.3725 -13.2187  -3.9846

     occupation numbers 
     1.0000   1.0000   1.0000   1.0000   1.0000   0.0000

 ------ SPIN DOWN ----------


          k = 0.0000 0.0000 0.0000 (  2777 PWs)   bands (ev):

   -32.7675 -15.8671 -13.1466 -13.1466  -9.2292  -2.6620

     occupation numbers 
     1.0000   1.0000   1.0000   1.0000   0.0000   0.0000

          k = 0.0000 0.0000-0.5000 (  2762 PWs)   bands (ev):

   -32.7512 -15.8371 -13.1467 -13.1467  -9.1141  -2.7093

     occupation numbers 
     1.0000   1.0000   1.0000   1.0000   0.0000   0.0000

          k = 0.0000-0.5000-0.5000 (  2752 PWs)   bands (ev):

   -32.7559 -15.8502 -13.1048 -13.0955  -9.1078  -2.7978

     occupation numbers 
     1.0000   1.0000   1.0000   1.0000   0.0000   0.0000

          k =-0.5000-0.5000-0.5000 (  2800 PWs)   bands (ev):

   -32.7649 -15.8950 -13.1737 -13.1737  -9.1191  -2.8109

     occupation numbers 
     1.0000   1.0000   1.0000   1.0000   0.0000   0.0000

          k =-0.5000 0.0000 0.0000 (  2762 PWs)   bands (ev):

   -32.7636 -15.8589 -13.1163 -13.1114  -9.2035  -2.6884

     occupation numbers 
     1.0000   1.0000   1.0000   1.0000   0.0000   0.0000

          k =-0.5000 0.5000 0.0000 (  2752 PWs)   bands (ev):

   -32.7568 -15.8351 -13.1402 -13.1402  -9.1744  -2.6800

     occupation numbers 
     1.0000   1.0000   1.0000   1.0000   0.0000   0.0000

     highest occupied, lowest unoccupied level (ev):   -13.0955   -9.2292

!    total energy              =     -41.86371939 Ry
     estimated scf accuracy    <          3.1E-09 Ry

     The total energy is the sum of the following terms:
     one-electron contribution =     -54.30900609 Ry
     hartree contribution      =      27.14348342 Ry
     xc contribution           =      -9.29888291 Ry
     ewald contribution        =      -5.39931382 Ry

     total magnetization       =     1.00 Bohr mag/cell
     absolute magnetization    =     1.19 Bohr mag/cell

     convergence has been achieved in  12 iterations

     Writing all to output data dir ./scratch/CO+.save/

     init_run     :      0.63s CPU      0.64s WALL (       1 calls)
     electrons    :      1.01s CPU      1.03s WALL (       1 calls)

     Called by init_run:
     wfcinit      :      0.30s CPU      0.30s WALL (       1 calls)
     wfcinit:atom :      0.00s CPU      0.00s WALL (      12 calls)
     wfcinit:wfcr :      0.28s CPU      0.28s WALL (      12 calls)
     potinit      :      0.02s CPU      0.02s WALL (       1 calls)
     hinit0       :      0.31s CPU      0.31s WALL (       1 calls)

     Called by electrons:
     c_bands      :      0.66s CPU      0.67s WALL (      12 calls)
     sum_band     :      0.12s CPU      0.12s WALL (      12 calls)
     v_of_rho     :      0.20s CPU      0.21s WALL (      13 calls)
     v_h          :      0.00s CPU      0.00s WALL (      13 calls)
     v_xc         :      0.20s CPU      0.20s WALL (      13 calls)
     mix_rho      :      0.04s CPU      0.04s WALL (      12 calls)

     Called by c_bands:
     init_us_2    :      0.01s CPU      0.01s WALL (     300 calls)
     init_us_2:cp :      0.01s CPU      0.01s WALL (     300 calls)
     cegterg      :      0.65s CPU      0.66s WALL (     144 calls)

     Called by sum_band:
     sum_band:wei :      0.00s CPU      0.00s WALL (      12 calls)
     sum_band:loo :      0.10s CPU      0.10s WALL (      12 calls)
     sum_band:buf :      0.00s CPU      0.00s WALL (     144 calls)
     sum_band:ini :      0.01s CPU      0.01s WALL (     144 calls)

     Called by *egterg:
     cdiaghg      :      0.01s CPU      0.01s WALL (     540 calls)
     cegterg:over :      0.02s CPU      0.02s WALL (     396 calls)
     cegterg:upda :      0.02s CPU      0.02s WALL (     396 calls)
     cegterg:last :      0.02s CPU      0.02s WALL (     308 calls)
     h_psi        :      0.83s CPU      0.84s WALL (     552 calls)
     g_psi        :      0.01s CPU      0.01s WALL (     396 calls)

     Called by h_psi:
     h_psi:calbec :      0.01s CPU      0.01s WALL (     552 calls)
     vloc_psi     :      0.82s CPU      0.82s WALL (     552 calls)
     add_vuspsi   :      0.00s CPU      0.00s WALL (     552 calls)

     General routines
     calbec       :      0.01s CPU      0.01s WALL (     552 calls)
     fft          :      0.29s CPU      0.30s WALL (     244 calls)
     ffts         :      0.00s CPU      0.00s WALL (      24 calls)
     fftw         :      0.78s CPU      0.78s WALL (    5958 calls)

     Parallel routines

     PWSCF        :      1.72s CPU      1.75s WALL


   This run was terminated on:  14:35:29   2Mar2026            

=------------------------------------------------------------------------------=
   JOB DONE.
=------------------------------------------------------------------------------=
