
     Program PWSCF v.7.2 starts on  2Mar2026 at 11:29:47 

     This program is part of the open-source Quantum ESPRESSO suite
     for quantum simulation of materials; please cite
         "P. Giannozzi et al., J. Phys.:Condens. Matter 21 395502 (2009);
         "P. Giannozzi et al., J. Phys.:Condens. Matter 29 465901 (2017);
         "P. Giannozzi et al., J. Chem. Phys. 152 154105 (2020);
          URL http://www.quantum-espresso.org", 
     in publications or presentations arising from this work. More details at
     http://www.quantum-espresso.org/quote

     Parallel version (MPI), running on     4 processors

     MPI processes distributed on     1 nodes
     3767 MiB available memory on the printing compute node when the environment starts

     Reading input from pw.scf.in

     Current dimensions of program PWSCF are:
     Max number of different atomic species (ntypx) = 10
     Max number of k-points (npk) =  40000
     Max angular momentum in pseudopotentials (lmaxx) =  4

     R & G space division:  proc/nbgrp/npool/nimage =       4
     Subspace diagonalization in iterative solution of the eigenvalue problem:
     a serial algorithm will be used


     Parallelization info
     --------------------
     sticks:   dense  smooth     PW     G-vecs:    dense   smooth      PW
     Min         267     267     75                 5821     5821     869
     Max         268     268     76                 5825     5825     872
     Sum        1069    1069    301                23289    23289    3479

     Using Slab Decomposition



     bravais-lattice index     =            0
     lattice parameter (alat)  =       7.4671  a.u.
     unit-cell volume          =     294.3983 (a.u.)^3
     number of atoms/cell      =            2
     number of atomic types    =            2
     number of electrons       =        16.00
     number of Kohn-Sham states=           12
     kinetic-energy cutoff     =      70.0000  Ry
     charge density cutoff     =     280.0000  Ry
     scf convergence threshold =      1.0E-10
     mixing beta               =       0.7000
     number of iterations used =            8  plain     mixing
     Exchange-correlation= PBESOL
                           (   1   4  10   8   0   0   0)

     celldm(1)=   7.467068  celldm(2)=   0.000000  celldm(3)=   0.000000
     celldm(4)=   0.000000  celldm(5)=   0.000000  celldm(6)=   0.000000

     crystal axes: (cart. coord. in units of alat)
               a(1) = (   0.000000   0.707107   0.707107 )  
               a(2) = (   0.707107   0.000000   0.707107 )  
               a(3) = (   0.707107   0.707107   0.000000 )  

     reciprocal axes: (cart. coord. in units 2 pi/alat)
               b(1) = ( -0.707107  0.707107  0.707107 )  
               b(2) = (  0.707107 -0.707107  0.707107 )  
               b(3) = (  0.707107  0.707107 -0.707107 )  


     PseudoPot. # 1 for Na read from file:
     ../../test_pseudos/Na.pbesol.upf
     MD5 check sum: 28c91e708b62a86bb73360832006b042
     Pseudo is Norm-conserving, Zval =  9.0
     Generated using ONCVPSP code by D. R. Hamann
     Using radial grid of 2307 points,  4 beta functions with: 
                l(1) =   0
                l(2) =   0
                l(3) =   1
                l(4) =   1

     PseudoPot. # 2 for Cl read from file:
     ../../test_pseudos/Cl.pbesol.upf
     MD5 check sum: ab8f954853eebe2127da65a0ef1686cb
     Pseudo is Norm-conserving + core correction, Zval =  7.0
     Generated using ONCVPSP code by D. R. Hamann
     Using radial grid of 2380 points,  6 beta functions with: 
                l(1) =   0
                l(2) =   0
                l(3) =   1
                l(4) =   1
                l(5) =   2
                l(6) =   2

     atomic species   valence    mass     pseudopotential
        Na             9.00    22.98977     Na( 1.00)
        Cl             7.00    35.45000     Cl( 1.00)

     No symmetry found



   Cartesian axes

     site n.     atom                  positions (alat units)
         1           Na  tau(   1) = (   0.0000000   0.0000000   0.0000000  )
         2           Cl  tau(   2) = (   0.7071068   0.7071068   0.7071068  )

     number of k points=     8  Fermi-Dirac smearing, width (Ry)=  0.0000
                       cart. coord. in units 2pi/alat
        k(    1) = (   0.1767767   0.1767767   0.1767767), wk =   0.2500000
        k(    2) = (  -0.1767767  -0.1767767   0.5303301), wk =   0.2500000
        k(    3) = (  -0.1767767   0.5303301  -0.1767767), wk =   0.2500000
        k(    4) = (  -0.5303301   0.1767767   0.1767767), wk =   0.2500000
        k(    5) = (   0.5303301  -0.1767767  -0.1767767), wk =   0.2500000
        k(    6) = (   0.1767767  -0.5303301   0.1767767), wk =   0.2500000
        k(    7) = (   0.1767767   0.1767767  -0.5303301), wk =   0.2500000
        k(    8) = (  -0.1767767  -0.1767767  -0.1767767), wk =   0.2500000

     Dense  grid:    23289 G-vectors     FFT dimensions: (  40,  40,  40)

     Estimated max dynamical RAM per process >       8.44 MB

     Estimated total dynamical RAM >      33.75 MB

     Initial potential from superposition of free atoms

     starting charge      15.9935, renormalised to      16.0000
     Starting wfcs are    9 randomized atomic wfcs +    3 random wfcs

     total cpu time spent up to now is        0.5 secs

     Self-consistent Calculation

     iteration #  1     ecut=    70.00 Ry     beta= 0.70
     Davidson diagonalization with overlap
     ethr =  1.00E-02,  avg # of iterations =  5.2

     Threshold (ethr) on eigenvalues was too large:
     Diagonalizing with lowered threshold

     Davidson diagonalization with overlap
     ethr =  2.61E-04,  avg # of iterations =  2.0

     total cpu time spent up to now is        0.6 secs

     total energy              =    -116.34323121 Ry
     estimated scf accuracy    <       0.04082247 Ry

     iteration #  2     ecut=    70.00 Ry     beta= 0.70
     Davidson diagonalization with overlap
     ethr =  2.55E-04,  avg # of iterations =  2.0

     total cpu time spent up to now is        0.6 secs

     total energy              =    -116.35355809 Ry
     estimated scf accuracy    <       0.00821956 Ry

     iteration #  3     ecut=    70.00 Ry     beta= 0.70
     Davidson diagonalization with overlap
     ethr =  5.14E-05,  avg # of iterations =  2.0

     total cpu time spent up to now is        0.7 secs

     total energy              =    -116.35522675 Ry
     estimated scf accuracy    <       0.00018426 Ry

     iteration #  4     ecut=    70.00 Ry     beta= 0.70
     Davidson diagonalization with overlap
     ethr =  1.15E-06,  avg # of iterations =  3.5

     total cpu time spent up to now is        0.7 secs

     total energy              =    -116.35524456 Ry
     estimated scf accuracy    <       0.00000418 Ry

     iteration #  5     ecut=    70.00 Ry     beta= 0.70
     Davidson diagonalization with overlap
     ethr =  2.61E-08,  avg # of iterations =  2.0

     total cpu time spent up to now is        0.8 secs

     total energy              =    -116.35524571 Ry
     estimated scf accuracy    <       0.00000009 Ry

     iteration #  6     ecut=    70.00 Ry     beta= 0.70
     Davidson diagonalization with overlap
     ethr =  5.71E-10,  avg # of iterations =  2.0

     total cpu time spent up to now is        0.8 secs

     total energy              =    -116.35524576 Ry
     estimated scf accuracy    <          1.3E-09 Ry

     iteration #  7     ecut=    70.00 Ry     beta= 0.70
     Davidson diagonalization with overlap
     ethr =  8.22E-12,  avg # of iterations =  3.1

     total cpu time spent up to now is        0.9 secs

     total energy              =    -116.35524576 Ry
     estimated scf accuracy    <          1.5E-10 Ry

     iteration #  8     ecut=    70.00 Ry     beta= 0.70
     Davidson diagonalization with overlap
     ethr =  9.11E-13,  avg # of iterations =  2.0

     total cpu time spent up to now is        0.9 secs

     End of self-consistent calculation

          k = 0.1768 0.1768 0.1768 (  2902 PWs)   bands (ev):

   -47.1050 -19.2257 -19.1930 -19.1930 -11.0295   0.3074   1.3496   1.3496
     8.0431  11.3643  12.7650  12.7650

          k =-0.1768-0.1768 0.5303 (  2919 PWs)   bands (ev):

   -47.1044 -19.2194 -19.2156 -19.1976 -10.8137  -0.1773   0.6614   1.0308
     9.5791  10.6983  11.5593  13.6418

          k =-0.1768 0.5303-0.1768 (  2919 PWs)   bands (ev):

   -47.1044 -19.2194 -19.2156 -19.1976 -10.8137  -0.1773   0.6614   1.0308
     9.5791  10.6983  11.5593  13.6418

          k =-0.5303 0.1768 0.1768 (  2919 PWs)   bands (ev):

   -47.1044 -19.2194 -19.2156 -19.1976 -10.8137  -0.1773   0.6614   1.0308
     9.5791  10.6983  11.5593  13.6418

          k = 0.5303-0.1768-0.1768 (  2919 PWs)   bands (ev):

   -47.1044 -19.2194 -19.2156 -19.1976 -10.8137  -0.1773   0.6614   1.0308
     9.5791  10.6983  11.5593  13.6418

          k = 0.1768-0.5303 0.1768 (  2919 PWs)   bands (ev):

   -47.1044 -19.2194 -19.2156 -19.1976 -10.8137  -0.1773   0.6614   1.0308
     9.5791  10.6983  11.5593  13.6418

          k = 0.1768 0.1768-0.5303 (  2919 PWs)   bands (ev):

   -47.1044 -19.2194 -19.2156 -19.1976 -10.8137  -0.1773   0.6614   1.0308
     9.5791  10.6983  11.5593  13.6418

          k =-0.1768-0.1768-0.1768 (  2902 PWs)   bands (ev):

   -47.1050 -19.2257 -19.1930 -19.1930 -11.0295   0.3074   1.3496   1.3496
     8.0431  11.3643  12.7650  12.7650

     the Fermi energy is     6.0484 ev

!    total energy              =    -116.35524576 Ry
     estimated scf accuracy    <          2.8E-11 Ry
     smearing contrib. (-TS)   =       0.00000000 Ry
     internal energy E=F+TS    =    -116.35524576 Ry

     The total energy is F=E-TS. E is the sum of the following terms:
     one-electron contribution =     -58.93392760 Ry
     hartree contribution      =      32.97333766 Ry
     xc contribution           =     -20.94991790 Ry
     ewald contribution        =     -69.44473792 Ry

     convergence has been achieved in   8 iterations

     Writing all to output data dir ./scratch/nacl.save/

     init_run     :      0.38s CPU      0.39s WALL (       1 calls)
     electrons    :      0.45s CPU      0.47s WALL (       1 calls)

     Called by init_run:
     wfcinit      :      0.02s CPU      0.02s WALL (       1 calls)
     potinit      :      0.01s CPU      0.02s WALL (       1 calls)
     hinit0       :      0.35s CPU      0.35s WALL (       1 calls)

     Called by electrons:
     c_bands      :      0.36s CPU      0.36s WALL (       9 calls)
     sum_band     :      0.06s CPU      0.06s WALL (       9 calls)
     v_of_rho     :      0.03s CPU      0.04s WALL (       9 calls)
     mix_rho      :      0.01s CPU      0.01s WALL (       9 calls)

     Called by c_bands:
     init_us_2    :      0.02s CPU      0.02s WALL (     152 calls)
     init_us_2:cp :      0.02s CPU      0.02s WALL (     152 calls)
     cegterg      :      0.33s CPU      0.34s WALL (      72 calls)

     Called by *egterg:
     cdiaghg      :      0.02s CPU      0.02s WALL (     255 calls)
     h_psi        :      0.29s CPU      0.29s WALL (     271 calls)
     g_psi        :      0.00s CPU      0.00s WALL (     191 calls)

     Called by h_psi:
     h_psi:calbec :      0.01s CPU      0.01s WALL (     271 calls)
     vloc_psi     :      0.27s CPU      0.27s WALL (     271 calls)
     add_vuspsi   :      0.01s CPU      0.01s WALL (     271 calls)

     General routines
     calbec       :      0.01s CPU      0.01s WALL (     271 calls)
     fft          :      0.32s CPU      0.32s WALL (      91 calls)
     ffts         :      0.00s CPU      0.00s WALL (       9 calls)
     fftw         :      0.27s CPU      0.28s WALL (    5420 calls)

     Parallel routines

     PWSCF        :      0.92s CPU      0.94s WALL


   This run was terminated on:  11:29:48   2Mar2026            

=------------------------------------------------------------------------------=
   JOB DONE.
=------------------------------------------------------------------------------=
