
     Program PWSCF v.7.5 starts on 15Jun2026 at 10:37: 3 

     This program is part of the open-source Quantum ESPRESSO suite
     for quantum simulation of materials; please cite
         "P. Giannozzi et al., J. Phys.:Condens. Matter 21 395502 (2009);
         "P. Giannozzi et al., J. Phys.:Condens. Matter 29 465901 (2017);
         "P. Giannozzi et al., J. Chem. Phys. 152 154105 (2020);
          URL http://www.quantum-espresso.org", 
     in publications or presentations arising from this work. More details at
     http://www.quantum-espresso.org/quote

     Parallel version (MPI), running on     1 processors

     MPI processes distributed on     1 nodes
     1269 MiB available memory on the printing compute node when the environment starts

     Reading input from pw_scf.in

     Current dimensions of program PWSCF are:
     Max number of different atomic species (ntypx) = 10
     Max number of k-points (npk) =  40000
     Max angular momentum in pseudopotentials (lmaxx) =  4
     Message from routine setup:
     the system is metallic, specify occupations

     Subspace diagonalization in iterative solution of the eigenvalue problem:
     a serial algorithm will be used


     G-vector sticks info
     --------------------
     sticks:   dense  smooth     PW     G-vecs:    dense   smooth      PW
     Sum         949     949    241                22119    22119    2777

     Using Slab Decomposition



     bravais-lattice index     =            1
     lattice parameter (alat)  =      10.0000  a.u.
     unit-cell volume          =    1000.0000 (a.u.)^3
     number of atoms/cell      =            2
     number of atomic types    =            2
     number of electrons       =         9.00 (up:   5.00, down:   4.00)
     number of Kohn-Sham states=            6
     kinetic-energy cutoff     =      30.0000  Ry
     charge density cutoff     =     120.0000  Ry
     scf convergence threshold =      1.0E-08
     mixing beta               =       0.7000
     number of iterations used =            8  plain     mixing
     Exchange-correlation=  SLA  PW   PBX  PBC
                           (   1   4   3   4   0   0   0)

     celldm(1)=  10.000000  celldm(2)=   0.000000  celldm(3)=   0.000000
     celldm(4)=   0.000000  celldm(5)=   0.000000  celldm(6)=   0.000000

     crystal axes: (cart. coord. in units of alat)
               a(1) = (   1.000000   0.000000   0.000000 )  
               a(2) = (   0.000000   1.000000   0.000000 )  
               a(3) = (   0.000000   0.000000   1.000000 )  

     reciprocal axes: (cart. coord. in units 2 pi/alat)
               b(1) = (  1.000000  0.000000  0.000000 )  
               b(2) = (  0.000000  1.000000  0.000000 )  
               b(3) = (  0.000000  0.000000  1.000000 )  


     PseudoPot. # 1 for O  read from file:
     ../../test_pseudos/O.pbe-tm-new-gipaw.UPF
     MD5 check sum: cd70c9dcf1f7d755502eb127a1501eea
     Pseudo is Norm-conserving, Zval =  6.0
     Generated by new atomic code, or converted to UPF format
     Using radial grid of 1469 points,  1 beta functions with: 
                l(1) =   0

     PseudoPot. # 2 for C  read from file:
     ../../test_pseudos/C.pbe-tm-new-gipaw.UPF
     MD5 check sum: c9fa938d11269a3b0a4c160d8754c0f1
     Pseudo is Norm-conserving, Zval =  4.0
     Generated by new atomic code, or converted to UPF format
     Using radial grid of 1441 points,  1 beta functions with: 
                l(1) =   0

     atomic species   valence    mass     pseudopotential
     O                 6.00    16.00000     O ( 1.00)
     C                 4.00    12.00000     C ( 1.00)

     Starting magnetic structure 
     atomic species   magnetization
     O               0.000
     C               0.000

      8 Sym. Ops. (no inversion) found


                                    s                        frac. trans.

      isym =  1     identity                                     

 cryst.   s( 1) = (     1          0          0      )
                  (     0          1          0      )
                  (     0          0          1      )

 cart.    s( 1) = (  1.0000000  0.0000000  0.0000000 )
                  (  0.0000000  1.0000000  0.0000000 )
                  (  0.0000000  0.0000000  1.0000000 )


      isym =  2     180 deg rotation - cart. axis [0,0,1]        

 cryst.   s( 2) = (    -1          0          0      )
                  (     0         -1          0      )
                  (     0          0          1      )

 cart.    s( 2) = ( -1.0000000  0.0000000  0.0000000 )
                  (  0.0000000 -1.0000000  0.0000000 )
                  (  0.0000000  0.0000000  1.0000000 )


      isym =  3      90 deg rotation - cart. axis [0,0,-1]       

 cryst.   s( 3) = (     0         -1          0      )
                  (     1          0          0      )
                  (     0          0          1      )

 cart.    s( 3) = (  0.0000000  1.0000000  0.0000000 )
                  ( -1.0000000  0.0000000  0.0000000 )
                  (  0.0000000  0.0000000  1.0000000 )


      isym =  4      90 deg rotation - cart. axis [0,0,1]        

 cryst.   s( 4) = (     0          1          0      )
                  (    -1          0          0      )
                  (     0          0          1      )

 cart.    s( 4) = (  0.0000000 -1.0000000  0.0000000 )
                  (  1.0000000  0.0000000  0.0000000 )
                  (  0.0000000  0.0000000  1.0000000 )


      isym =  5     inv. 180 deg rotation - cart. axis [0,1,0]   

 cryst.   s( 5) = (     1          0          0      )
                  (     0         -1          0      )
                  (     0          0          1      )

 cart.    s( 5) = (  1.0000000  0.0000000  0.0000000 )
                  (  0.0000000 -1.0000000  0.0000000 )
                  (  0.0000000  0.0000000  1.0000000 )


      isym =  6     inv. 180 deg rotation - cart. axis [1,0,0]   

 cryst.   s( 6) = (    -1          0          0      )
                  (     0          1          0      )
                  (     0          0          1      )

 cart.    s( 6) = ( -1.0000000  0.0000000  0.0000000 )
                  (  0.0000000  1.0000000  0.0000000 )
                  (  0.0000000  0.0000000  1.0000000 )


      isym =  7     inv. 180 deg rotation - cart. axis [1,1,0]   

 cryst.   s( 7) = (     0         -1          0      )
                  (    -1          0          0      )
                  (     0          0          1      )

 cart.    s( 7) = (  0.0000000 -1.0000000  0.0000000 )
                  ( -1.0000000  0.0000000  0.0000000 )
                  (  0.0000000  0.0000000  1.0000000 )


      isym =  8     inv. 180 deg rotation - cart. axis [1,-1,0]  

 cryst.   s( 8) = (     0          1          0      )
                  (     1          0          0      )
                  (     0          0          1      )

 cart.    s( 8) = (  0.0000000  1.0000000  0.0000000 )
                  (  1.0000000  0.0000000  0.0000000 )
                  (  0.0000000  0.0000000  1.0000000 )


     point group C_4v (4mm) 
     there are  5 classes
     the character table:

       E     2C4   C2    2s_v  2s_d 
A_1    1.00  1.00  1.00  1.00  1.00
A_2    1.00  1.00  1.00 -1.00 -1.00
B_1    1.00 -1.00  1.00  1.00 -1.00
B_2    1.00 -1.00  1.00 -1.00  1.00
E      2.00  0.00 -2.00  0.00  0.00

     the symmetry operations in each class and the name of the first element:

     E        1
          identity                                               
     2C4      3    4
           90 deg rotation - cart. axis [0,0,-1]                 
     C2       2
          180 deg rotation - cart. axis [0,0,1]                  
     2s_v     5    6
          inv. 180 deg rotation - cart. axis [0,1,0]             
     2s_d     7    8
          inv. 180 deg rotation - cart. axis [1,1,0]             

   Cartesian axes

     site n.     atom                  positions (alat units)
         1        O      tau(   1) = (   0.0000000   0.0000000  -0.0001612  )
         2        C      tau(   2) = (   0.0000000   0.0000000   0.2133223  )

   Crystallographic axes

     site n.     atom                  positions (cryst. coord.)
         1        O      tau(   1) = (  0.0000000  0.0000000 -0.0001612  )
         2        C      tau(   2) = (  0.0000000  0.0000000  0.2133223  )

     number of k points=     1
                       cart. coord. in units 2pi/alat
        k(    1) = (   0.0000000   0.0000000   0.0000000), wk =   1.0000000

                       cryst. coord.
        k(    1) = (   0.0000000   0.0000000   0.0000000), wk =   1.0000000

     Dense  grid:    22119 G-vectors     FFT dimensions: (  36,  36,  36)

     Dynamical RAM for                 wfc:       0.25 MB

     Dynamical RAM for     wfc (w. buffer):       0.76 MB

     Dynamical RAM for           str. fact:       0.68 MB

     Dynamical RAM for           local pot:       0.00 MB

     Dynamical RAM for          nlocal pot:       0.08 MB

     Dynamical RAM for                qrad:       0.02 MB

     Dynamical RAM for          rho,v,vnew:       4.16 MB

     Dynamical RAM for               rhoin:       1.39 MB

     Dynamical RAM for            rho*nmix:      10.80 MB

     Dynamical RAM for           G-vectors:       1.43 MB

     Dynamical RAM for          h,s,v(r/c):       0.01 MB

     Dynamical RAM for          <psi|beta>:       0.00 MB

     Dynamical RAM for                 psi:       0.51 MB

     Dynamical RAM for                hpsi:       0.51 MB

     Dynamical RAM for      wfcinit/wfcrot:       0.51 MB

     Estimated static dynamical RAM per process >      11.67 MB

     Estimated max dynamical RAM per process >      23.49 MB
     Generating pointlists ...
     new r_m :   0.0881 (alat units)  0.8806 (a.u.) for type    1
     new r_m :   0.0881 (alat units)  0.8806 (a.u.) for type    2

     Initial potential from superposition of free atoms

     starting charge      10.0000, renormalised to       9.0000

     negative rho (up, down):  5.316E-03 5.316E-03
     Starting wfcs are   16 randomized atomic wfcs

     total cpu time spent up to now is        0.7 secs

     Self-consistent Calculation

     iteration #  1     ecut=    30.00 Ry     beta= 0.70
     Davidson diagonalization with overlap

---- Real-time Memory Report at c_bands before calling an iterative solver
           213 MiB given to the printing process from OS
             0 MiB allocation reported by mallinfo(arena+hblkhd)
          1231 MiB available memory on the node where the printing process lives
------------------
     ethr =  1.00E-04,  avg # of iterations =  4.0

     negative rho (up, down):  1.219E-03 1.372E-03

     total cpu time spent up to now is        0.7 secs

     total energy              =     -41.47176871 Ry
     estimated scf accuracy    <       0.95172326 Ry

     total magnetization       =     1.00 Bohr mag/cell
     absolute magnetization    =     1.00 Bohr mag/cell

     iteration #  2     ecut=    30.00 Ry     beta= 0.70
     Davidson diagonalization with overlap

---- Real-time Memory Report at c_bands before calling an iterative solver
           222 MiB given to the printing process from OS
             0 MiB allocation reported by mallinfo(arena+hblkhd)
          1222 MiB available memory on the node where the printing process lives
------------------
     ethr =  1.00E-02,  avg # of iterations =  4.0

     negative rho (up, down):  8.324E-04 9.699E-04

     total cpu time spent up to now is        0.8 secs

     total energy              =     -41.24139309 Ry
     estimated scf accuracy    <       3.25896829 Ry

     total magnetization       =     1.00 Bohr mag/cell
     absolute magnetization    =     1.05 Bohr mag/cell

     iteration #  3     ecut=    30.00 Ry     beta= 0.70
     Davidson diagonalization with overlap

---- Real-time Memory Report at c_bands before calling an iterative solver
           224 MiB given to the printing process from OS
             0 MiB allocation reported by mallinfo(arena+hblkhd)
          1221 MiB available memory on the node where the printing process lives
------------------
     ethr =  1.00E-02,  avg # of iterations =  3.0

     negative rho (up, down):  1.301E-04 1.887E-04

     total cpu time spent up to now is        0.8 secs

     total energy              =     -41.86815435 Ry
     estimated scf accuracy    <       0.07121809 Ry

     total magnetization       =     1.00 Bohr mag/cell
     absolute magnetization    =     1.06 Bohr mag/cell

     iteration #  4     ecut=    30.00 Ry     beta= 0.70
     Davidson diagonalization with overlap

---- Real-time Memory Report at c_bands before calling an iterative solver
           225 MiB given to the printing process from OS
             0 MiB allocation reported by mallinfo(arena+hblkhd)
          1221 MiB available memory on the node where the printing process lives
------------------
     ethr =  7.91E-04,  avg # of iterations =  2.0

     negative rho (up, down):  3.044E-08 4.999E-07

     total cpu time spent up to now is        0.8 secs

     total energy              =     -41.87064451 Ry
     estimated scf accuracy    <       0.01953055 Ry

     total magnetization       =     1.00 Bohr mag/cell
     absolute magnetization    =     1.08 Bohr mag/cell

     iteration #  5     ecut=    30.00 Ry     beta= 0.70
     Davidson diagonalization with overlap

---- Real-time Memory Report at c_bands before calling an iterative solver
           227 MiB given to the printing process from OS
             0 MiB allocation reported by mallinfo(arena+hblkhd)
          1213 MiB available memory on the node where the printing process lives
------------------
     ethr =  2.17E-04,  avg # of iterations =  1.5

     negative rho (up, down):  5.152E-07 3.431E-06

     total cpu time spent up to now is        0.9 secs

     total energy              =     -41.87420382 Ry
     estimated scf accuracy    <       0.00029923 Ry

     total magnetization       =     1.00 Bohr mag/cell
     absolute magnetization    =     1.12 Bohr mag/cell

     iteration #  6     ecut=    30.00 Ry     beta= 0.70
     Davidson diagonalization with overlap

---- Real-time Memory Report at c_bands before calling an iterative solver
           228 MiB given to the printing process from OS
             0 MiB allocation reported by mallinfo(arena+hblkhd)
          1213 MiB available memory on the node where the printing process lives
------------------
     ethr =  3.32E-06,  avg # of iterations =  4.0

     negative rho (up, down):  3.728E-07 3.464E-06

     total cpu time spent up to now is        0.9 secs

     total energy              =     -41.87467306 Ry
     estimated scf accuracy    <       0.00039609 Ry

     total magnetization       =     1.00 Bohr mag/cell
     absolute magnetization    =     1.15 Bohr mag/cell

     iteration #  7     ecut=    30.00 Ry     beta= 0.70
     Davidson diagonalization with overlap

---- Real-time Memory Report at c_bands before calling an iterative solver
           229 MiB given to the printing process from OS
             0 MiB allocation reported by mallinfo(arena+hblkhd)
          1213 MiB available memory on the node where the printing process lives
------------------
     ethr =  3.32E-06,  avg # of iterations =  2.0

     negative rho (up, down):  5.163E-09 9.918E-08

     total cpu time spent up to now is        0.9 secs

     total energy              =     -41.87482581 Ry
     estimated scf accuracy    <       0.00002271 Ry

     total magnetization       =     1.00 Bohr mag/cell
     absolute magnetization    =     1.17 Bohr mag/cell

     iteration #  8     ecut=    30.00 Ry     beta= 0.70
     Davidson diagonalization with overlap

---- Real-time Memory Report at c_bands before calling an iterative solver
           231 MiB given to the printing process from OS
             0 MiB allocation reported by mallinfo(arena+hblkhd)
          1213 MiB available memory on the node where the printing process lives
------------------
     ethr =  2.52E-07,  avg # of iterations =  3.0

     total cpu time spent up to now is        1.0 secs

     total energy              =     -41.87480990 Ry
     estimated scf accuracy    <       0.00009330 Ry

     total magnetization       =     1.00 Bohr mag/cell
     absolute magnetization    =     1.18 Bohr mag/cell

     iteration #  9     ecut=    30.00 Ry     beta= 0.70
     Davidson diagonalization with overlap

---- Real-time Memory Report at c_bands before calling an iterative solver
           232 MiB given to the printing process from OS
             0 MiB allocation reported by mallinfo(arena+hblkhd)
          1213 MiB available memory on the node where the printing process lives
------------------
     ethr =  2.52E-07,  avg # of iterations =  3.5

     total cpu time spent up to now is        1.0 secs

     total energy              =     -41.87484283 Ry
     estimated scf accuracy    <       0.00001968 Ry

     total magnetization       =     1.00 Bohr mag/cell
     absolute magnetization    =     1.19 Bohr mag/cell

     iteration # 10     ecut=    30.00 Ry     beta= 0.70
     Davidson diagonalization with overlap

---- Real-time Memory Report at c_bands before calling an iterative solver
           233 MiB given to the printing process from OS
             0 MiB allocation reported by mallinfo(arena+hblkhd)
          1213 MiB available memory on the node where the printing process lives
------------------
     ethr =  2.19E-07,  avg # of iterations =  1.5

     total cpu time spent up to now is        1.0 secs

     total energy              =     -41.87484292 Ry
     estimated scf accuracy    <       0.00000254 Ry

     total magnetization       =     1.00 Bohr mag/cell
     absolute magnetization    =     1.19 Bohr mag/cell

     iteration # 11     ecut=    30.00 Ry     beta= 0.70
     Davidson diagonalization with overlap

---- Real-time Memory Report at c_bands before calling an iterative solver
           233 MiB given to the printing process from OS
             0 MiB allocation reported by mallinfo(arena+hblkhd)
          1213 MiB available memory on the node where the printing process lives
------------------
     ethr =  2.82E-08,  avg # of iterations =  2.5

     total cpu time spent up to now is        1.1 secs

     total energy              =     -41.87484555 Ry
     estimated scf accuracy    <       0.00000169 Ry

     total magnetization       =     1.00 Bohr mag/cell
     absolute magnetization    =     1.20 Bohr mag/cell

     iteration # 12     ecut=    30.00 Ry     beta= 0.70
     Davidson diagonalization with overlap

---- Real-time Memory Report at c_bands before calling an iterative solver
           233 MiB given to the printing process from OS
             0 MiB allocation reported by mallinfo(arena+hblkhd)
          1212 MiB available memory on the node where the printing process lives
------------------
     ethr =  1.88E-08,  avg # of iterations =  1.5

     total cpu time spent up to now is        1.1 secs

     total energy              =     -41.87484569 Ry
     estimated scf accuracy    <       0.00000011 Ry

     total magnetization       =     1.00 Bohr mag/cell
     absolute magnetization    =     1.19 Bohr mag/cell

     iteration # 13     ecut=    30.00 Ry     beta= 0.70
     Davidson diagonalization with overlap

---- Real-time Memory Report at c_bands before calling an iterative solver
           233 MiB given to the printing process from OS
             0 MiB allocation reported by mallinfo(arena+hblkhd)
          1212 MiB available memory on the node where the printing process lives
------------------
     ethr =  1.26E-09,  avg # of iterations =  4.0

     total cpu time spent up to now is        1.1 secs

     total energy              =     -41.87484575 Ry
     estimated scf accuracy    <       0.00000008 Ry

     total magnetization       =     1.00 Bohr mag/cell
     absolute magnetization    =     1.19 Bohr mag/cell

     iteration # 14     ecut=    30.00 Ry     beta= 0.70
     Davidson diagonalization with overlap

---- Real-time Memory Report at c_bands before calling an iterative solver
           233 MiB given to the printing process from OS
             0 MiB allocation reported by mallinfo(arena+hblkhd)
          1212 MiB available memory on the node where the printing process lives
------------------
     ethr =  8.94E-10,  avg # of iterations =  1.5

     total cpu time spent up to now is        1.1 secs

     total energy              =     -41.87484575 Ry
     estimated scf accuracy    <       0.00000001 Ry

     total magnetization       =     1.00 Bohr mag/cell
     absolute magnetization    =     1.19 Bohr mag/cell

     iteration # 15     ecut=    30.00 Ry     beta= 0.70
     Davidson diagonalization with overlap

---- Real-time Memory Report at c_bands before calling an iterative solver
           233 MiB given to the printing process from OS
             0 MiB allocation reported by mallinfo(arena+hblkhd)
          1212 MiB available memory on the node where the printing process lives
------------------
     ethr =  1.14E-10,  avg # of iterations =  3.5

     Magnetic moment per site  (integrated on atomic sphere of radius R)
     atom   1 (R=0.088)  charge=  2.4897  magn=  0.0010
     atom   2 (R=0.088)  charge=  0.8718  magn=  0.2531

     total cpu time spent up to now is        1.2 secs

     End of self-consistent calculation

 ------ SPIN UP ------------


          k = 0.0000 0.0000 0.0000 (  2777 PWs)   bands (ev):

   -32.8784 -16.6414 -13.3535 -13.3535 -13.2522  -3.9830

     occupation numbers 
     1.0000   1.0000   1.0000   1.0000   1.0000   0.0000

 ------ SPIN DOWN ----------


          k = 0.0000 0.0000 0.0000 (  2777 PWs)   bands (ev):

   -32.7388 -15.8451 -13.1251 -13.1251  -9.2266  -2.6470

     occupation numbers 
     1.0000   1.0000   1.0000   1.0000   0.0000   0.0000

     highest occupied, lowest unoccupied level (ev):   -13.1251   -9.2266

!    total energy              =     -41.87484575 Ry
     estimated scf accuracy    <          6.9E-10 Ry

     The total energy is the sum of the following terms:
     one-electron contribution =     -54.33361185 Ry
     hartree contribution      =      27.15958008 Ry
     xc contribution           =      -9.30150017 Ry
     ewald contribution        =      -5.39931382 Ry

     total magnetization       =     1.00 Bohr mag/cell
     absolute magnetization    =     1.19 Bohr mag/cell

     convergence has been achieved in  15 iterations

     Writing all to output data dir ./scratch/CO+.save/ :
     XML data file, charge density, pseudopotentials, collected wavefunctions

     init_run     :      0.62s CPU      0.62s WALL (       1 calls)
     electrons    :      0.45s CPU      0.46s WALL (       1 calls)

     Called by init_run:
     wfcinit      :      0.24s CPU      0.25s WALL (       1 calls)
     wfcinit:atom :      0.00s CPU      0.00s WALL (       2 calls)
     wfcinit:wfcr :      0.24s CPU      0.24s WALL (       2 calls)
     potinit      :      0.04s CPU      0.04s WALL (       1 calls)
     hinit0       :      0.33s CPU      0.33s WALL (       1 calls)

     Called by electrons:
     c_bands      :      0.13s CPU      0.13s WALL (      15 calls)
     sum_band     :      0.04s CPU      0.04s WALL (      15 calls)
     v_of_rho     :      0.25s CPU      0.25s WALL (      16 calls)
     v_h          :      0.00s CPU      0.00s WALL (      16 calls)
     v_xc         :      0.25s CPU      0.25s WALL (      16 calls)
     mix_rho      :      0.04s CPU      0.04s WALL (      15 calls)

     Called by c_bands:
     init_us_2    :      0.00s CPU      0.00s WALL (      62 calls)
     cegterg      :      0.13s CPU      0.13s WALL (      30 calls)

     Called by sum_band:
     sum_band:wei :      0.00s CPU      0.00s WALL (      15 calls)
     sum_band:loo :      0.02s CPU      0.02s WALL (      15 calls)
     sum_band:buf :      0.00s CPU      0.00s WALL (      30 calls)
     sum_band:ini :      0.00s CPU      0.00s WALL (      30 calls)

     Called by *egterg:
     cdiaghg      :      0.00s CPU      0.00s WALL (     113 calls)
     cegterg:over :      0.01s CPU      0.01s WALL (      83 calls)
     cegterg:upda :      0.00s CPU      0.00s WALL (      83 calls)
     cegterg:last :      0.00s CPU      0.00s WALL (      63 calls)
     h_psi        :      0.35s CPU      0.35s WALL (     115 calls)
     g_psi        :      0.00s CPU      0.00s WALL (      83 calls)

     Called by h_psi:
     h_psi:calbec :      0.00s CPU      0.00s WALL (     115 calls)
     vloc_psi     :      0.34s CPU      0.35s WALL (     115 calls)
                                        0.00s GPU  (     115 calls)
     add_vuspsi   :      0.00s CPU      0.00s WALL (     115 calls)

     General routines
     calbec       :      0.00s CPU      0.00s WALL (     115 calls)
     fft          :      0.31s CPU      0.31s WALL (     301 calls)
     ffts         :      0.01s CPU      0.01s WALL (      30 calls)
     fftw         :      0.34s CPU      0.34s WALL (    1206 calls)

     Parallel routines

     PWSCF        :      1.16s CPU      1.17s WALL


   This run was terminated on:  10:37: 4  15Jun2026            

=------------------------------------------------------------------------------=
   JOB DONE.
=------------------------------------------------------------------------------=
