
     Program PWSCF v.7.5 starts on  5Mar2026 at  9:16:43 

     This program is part of the open-source Quantum ESPRESSO suite
     for quantum simulation of materials; please cite
         "P. Giannozzi et al., J. Phys.:Condens. Matter 21 395502 (2009);
         "P. Giannozzi et al., J. Phys.:Condens. Matter 29 465901 (2017);
         "P. Giannozzi et al., J. Chem. Phys. 152 154105 (2020);
          URL http://www.quantum-espresso.org", 
     in publications or presentations arising from this work. More details at
     http://www.quantum-espresso.org/quote

     Parallel version (MPI), running on     4 processors

     MPI processes distributed on     1 nodes
     6591 MiB available memory on the printing compute node when the environment starts

     Reading input from pw_scf.in
     Message from routine read_cards :
     DEPRECATED: no units specified in CELL_PARAMETERS card

     Current dimensions of program PWSCF are:
     Max number of different atomic species (ntypx) = 10
     Max number of k-points (npk) =  40000
     Max angular momentum in pseudopotentials (lmaxx) =  4

     R & G space division:  proc/nbgrp/npool/nimage =       4
     Subspace diagonalization in iterative solution of the eigenvalue problem:
     a serial algorithm will be used


     Parallelization info
     --------------------
     sticks:   dense  smooth     PW     G-vecs:    dense   smooth      PW
     Min         296     296     90                 9074     9074    1534
     Max         298     298     91                 9075     9075    1539
     Sum        1189    1189    361                36297    36297    6145

     Using Slab Decomposition



     bravais-lattice index     =            0
     lattice parameter (alat)  =       4.6415  a.u.
     unit-cell volume          =     762.0804 (a.u.)^3
     number of atoms/cell      =            9
     number of atomic types    =            2
     number of electrons       =        48.00
     number of Kohn-Sham states=           25
     kinetic-energy cutoff     =      50.0000  Ry
     charge density cutoff     =     200.0000  Ry
     scf convergence threshold =      1.0E-10
     mixing beta               =       0.5000
     number of iterations used =            8  plain     mixing
     Exchange-correlation=  SLA  PW   PBX  PBC
                           (   1   4   3   4   0   0   0)

     celldm(1)=   4.641538  celldm(2)=   0.000000  celldm(3)=   0.000000
     celldm(4)=   0.000000  celldm(5)=   0.000000  celldm(6)=   0.000000

     crystal axes: (cart. coord. in units of alat)
               a(1) = (   1.000000  -1.732058   0.000000 )  
               a(2) = (   1.000000   1.732058   0.000000 )  
               a(3) = (   0.000000   0.000000   2.200000 )  

     reciprocal axes: (cart. coord. in units 2 pi/alat)
               b(1) = (  0.500000 -0.288674  0.000000 )  
               b(2) = (  0.500000  0.288674 -0.000000 )  
               b(3) = ( -0.000000  0.000000  0.454545 )  


     PseudoPot. # 1 for Si read from file:
     ../../test_pseudos/Si.pbe-tm-gipaw.UPF
     MD5 check sum: 744ed8b2dc623e0d56f5dfff7afbe95f
     Pseudo is Norm-conserving, Zval =  4.0
     Generated by new atomic code, or converted to UPF format
     Using radial grid of 1141 points,  2 beta functions with: 
                l(1) =   0
                l(2) =   1

     PseudoPot. # 2 for O  read from file:
     ../../test_pseudos/O.pbe-tm-new-gipaw.UPF
     MD5 check sum: cd70c9dcf1f7d755502eb127a1501eea
     Pseudo is Norm-conserving, Zval =  6.0
     Generated by new atomic code, or converted to UPF format
     Using radial grid of 1469 points,  1 beta functions with: 
                l(1) =   0

     atomic species   valence    mass     pseudopotential
     Si                4.00    28.08600     Si( 1.00)
     O                 6.00    15.99900     O ( 1.00)

     No symmetry found


                                    s                        frac. trans.

      isym =  1     identity                                     

 cryst.   s( 1) = (     1          0          0      )
                  (     0          1          0      )
                  (     0          0          1      )

 cart.    s( 1) = (  1.0000000  0.0000000  0.0000000 )
                  (  0.0000000  1.0000000  0.0000000 )
                  (  0.0000000  0.0000000  1.0000000 )


   Cartesian axes

     site n.     atom                  positions (alat units)
         1        Si     tau(   1) = (   0.4701000  -0.8142405   0.7333333  )
         2        Si     tau(   2) = (   0.4701000   0.8142405   1.4666667  )
         3        Si     tau(   3) = (  -0.9402000   0.0000000   0.0000000  )
         4        O      tau(   4) = (   0.6813000  -0.2537465   0.4716800  )
         5        O      tau(   5) = (  -0.1209000   0.7168988   1.2050133  )
         6        O      tau(   6) = (  -0.5604000  -0.4631523   1.9383467  )
         7        O      tau(   7) = (   0.6813000   0.2537465  -0.4716800  )
         8        O      tau(   8) = (  -0.1209000  -0.7168988   0.9949867  )
         9        O      tau(   9) = (  -0.5604000   0.4631523   0.2616533  )

   Crystallographic axes

     site n.     atom                  positions (cryst. coord.)
         1        Si     tau(   1) = (  0.4701000  0.0000000  0.3333333  )
         2        Si     tau(   2) = (  0.0000000  0.4701000  0.6666667  )
         3        Si     tau(   3) = ( -0.4701000 -0.4701000  0.0000000  )
         4        O      tau(   4) = (  0.4139000  0.2674000  0.2144000  )
         5        O      tau(   5) = ( -0.2674000  0.1465000  0.5477333  )
         6        O      tau(   6) = ( -0.1465000 -0.4139000  0.8810667  )
         7        O      tau(   7) = (  0.2674000  0.4139000 -0.2144000  )
         8        O      tau(   8) = (  0.1465000 -0.2674000  0.4522667  )
         9        O      tau(   9) = ( -0.4139000 -0.1465000  0.1189333  )

     number of k points=     8
                       cart. coord. in units 2pi/alat
        k(    1) = (   0.0000000   0.0000000   0.0000000), wk =   0.2500000
        k(    2) = (   0.0000000   0.0000000  -0.2272727), wk =   0.2500000
        k(    3) = (  -0.2500000  -0.1443370   0.0000000), wk =   0.2500000
        k(    4) = (  -0.2500000  -0.1443370  -0.2272727), wk =   0.2500000
        k(    5) = (  -0.2500000   0.1443370   0.0000000), wk =   0.2500000
        k(    6) = (  -0.2500000   0.1443370  -0.2272727), wk =   0.2500000
        k(    7) = (  -0.5000000   0.0000000   0.0000000), wk =   0.2500000
        k(    8) = (  -0.5000000   0.0000000  -0.2272727), wk =   0.2500000

                       cryst. coord.
        k(    1) = (   0.0000000   0.0000000   0.0000000), wk =   0.2500000
        k(    2) = (   0.0000000   0.0000000  -0.5000000), wk =   0.2500000
        k(    3) = (   0.0000000  -0.5000000   0.0000000), wk =   0.2500000
        k(    4) = (   0.0000000  -0.5000000  -0.5000000), wk =   0.2500000
        k(    5) = (  -0.5000000   0.0000000   0.0000000), wk =   0.2500000
        k(    6) = (  -0.5000000   0.0000000  -0.5000000), wk =   0.2500000
        k(    7) = (  -0.5000000  -0.5000000   0.0000000), wk =   0.2500000
        k(    8) = (  -0.5000000  -0.5000000  -0.5000000), wk =   0.2500000

     Dense  grid:    36297 G-vectors     FFT dimensions: (  45,  45,  45)

     Dynamical RAM for                 wfc:       0.43 MB

     Dynamical RAM for     wfc (w. buffer):       3.90 MB

     Dynamical RAM for           str. fact:       0.28 MB

     Dynamical RAM for           local pot:       0.00 MB

     Dynamical RAM for          nlocal pot:       0.31 MB

     Dynamical RAM for                qrad:       0.19 MB

     Dynamical RAM for          rho,v,vnew:       0.97 MB

     Dynamical RAM for               rhoin:       0.32 MB

     Dynamical RAM for            rho*nmix:       2.22 MB

     Dynamical RAM for           G-vectors:       0.59 MB

     Dynamical RAM for          h,s,v(r/c):       0.11 MB

     Dynamical RAM for          <psi|beta>:       0.01 MB

     Dynamical RAM for                 psi:       0.87 MB

     Dynamical RAM for                hpsi:       0.87 MB

     Dynamical RAM for      wfcinit/wfcrot:       0.88 MB

     Estimated static dynamical RAM per process >       7.91 MB

     Estimated max dynamical RAM per process >      11.99 MB

     Estimated total dynamical RAM >      47.94 MB

     Initial potential from superposition of free atoms

     starting charge      46.4147, renormalised to      48.0000
     Starting wfcs are   75 randomized atomic wfcs

     total cpu time spent up to now is        0.5 secs

     Self-consistent Calculation

     iteration #  1     ecut=    50.00 Ry     beta= 0.50
     Davidson diagonalization with overlap

---- Real-time Memory Report at c_bands before calling an iterative solver
           232 MiB given to the printing process from OS
             0 MiB allocation reported by mallinfo(arena+hblkhd)
          6534 MiB available memory on the node where the printing process lives
------------------
     ethr =  1.00E-04,  avg # of iterations =  5.9

     total cpu time spent up to now is        0.9 secs

     total energy              =    -215.93624133 Ry
     estimated scf accuracy    <       0.88303727 Ry

     iteration #  2     ecut=    50.00 Ry     beta= 0.50
     Davidson diagonalization with overlap

---- Real-time Memory Report at c_bands before calling an iterative solver
           234 MiB given to the printing process from OS
             0 MiB allocation reported by mallinfo(arena+hblkhd)
          6528 MiB available memory on the node where the printing process lives
------------------
     ethr =  1.84E-03,  avg # of iterations =  2.0

     total cpu time spent up to now is        1.1 secs

     total energy              =    -216.14258525 Ry
     estimated scf accuracy    <       0.07312436 Ry

     iteration #  3     ecut=    50.00 Ry     beta= 0.50
     Davidson diagonalization with overlap

---- Real-time Memory Report at c_bands before calling an iterative solver
           234 MiB given to the printing process from OS
             0 MiB allocation reported by mallinfo(arena+hblkhd)
          6528 MiB available memory on the node where the printing process lives
------------------
     ethr =  1.52E-04,  avg # of iterations =  1.0

     total cpu time spent up to now is        1.3 secs

     total energy              =    -216.14884587 Ry
     estimated scf accuracy    <       0.01348987 Ry

     iteration #  4     ecut=    50.00 Ry     beta= 0.50
     Davidson diagonalization with overlap

---- Real-time Memory Report at c_bands before calling an iterative solver
           234 MiB given to the printing process from OS
             0 MiB allocation reported by mallinfo(arena+hblkhd)
          6524 MiB available memory on the node where the printing process lives
------------------
     ethr =  2.81E-05,  avg # of iterations =  2.0

     total cpu time spent up to now is        1.6 secs

     total energy              =    -216.15010808 Ry
     estimated scf accuracy    <       0.00394788 Ry

     iteration #  5     ecut=    50.00 Ry     beta= 0.50
     Davidson diagonalization with overlap

---- Real-time Memory Report at c_bands before calling an iterative solver
           235 MiB given to the printing process from OS
             0 MiB allocation reported by mallinfo(arena+hblkhd)
          6524 MiB available memory on the node where the printing process lives
------------------
     ethr =  8.22E-06,  avg # of iterations =  4.6

     total cpu time spent up to now is        1.8 secs

     total energy              =    -216.15050792 Ry
     estimated scf accuracy    <       0.00018621 Ry

     iteration #  6     ecut=    50.00 Ry     beta= 0.50
     Davidson diagonalization with overlap

---- Real-time Memory Report at c_bands before calling an iterative solver
           235 MiB given to the printing process from OS
             0 MiB allocation reported by mallinfo(arena+hblkhd)
          6523 MiB available memory on the node where the printing process lives
------------------
     ethr =  3.88E-07,  avg # of iterations =  2.0

     total cpu time spent up to now is        2.1 secs

     total energy              =    -216.15055709 Ry
     estimated scf accuracy    <       0.00000151 Ry

     iteration #  7     ecut=    50.00 Ry     beta= 0.50
     Davidson diagonalization with overlap

---- Real-time Memory Report at c_bands before calling an iterative solver
           235 MiB given to the printing process from OS
             0 MiB allocation reported by mallinfo(arena+hblkhd)
          6523 MiB available memory on the node where the printing process lives
------------------
     ethr =  3.15E-09,  avg # of iterations =  3.5

     total cpu time spent up to now is        2.4 secs

     total energy              =    -216.15055679 Ry
     estimated scf accuracy    <       0.00000984 Ry

     iteration #  8     ecut=    50.00 Ry     beta= 0.50
     Davidson diagonalization with overlap

---- Real-time Memory Report at c_bands before calling an iterative solver
           236 MiB given to the printing process from OS
             0 MiB allocation reported by mallinfo(arena+hblkhd)
          6523 MiB available memory on the node where the printing process lives
------------------
     ethr =  3.15E-09,  avg # of iterations =  3.0

     total cpu time spent up to now is        2.6 secs

     total energy              =    -216.15055784 Ry
     estimated scf accuracy    <       0.00000038 Ry

     iteration #  9     ecut=    50.00 Ry     beta= 0.50
     Davidson diagonalization with overlap

---- Real-time Memory Report at c_bands before calling an iterative solver
           236 MiB given to the printing process from OS
             0 MiB allocation reported by mallinfo(arena+hblkhd)
          6523 MiB available memory on the node where the printing process lives
------------------
     ethr =  7.90E-10,  avg # of iterations =  2.0

     total cpu time spent up to now is        2.9 secs

     total energy              =    -216.15055797 Ry
     estimated scf accuracy    <       0.00000002 Ry

     iteration # 10     ecut=    50.00 Ry     beta= 0.50
     Davidson diagonalization with overlap

---- Real-time Memory Report at c_bands before calling an iterative solver
           236 MiB given to the printing process from OS
             0 MiB allocation reported by mallinfo(arena+hblkhd)
          6522 MiB available memory on the node where the printing process lives
------------------
     ethr =  4.25E-11,  avg # of iterations =  2.0

     total cpu time spent up to now is        3.1 secs

     total energy              =    -216.15055798 Ry
     estimated scf accuracy    <          1.4E-09 Ry

     iteration # 11     ecut=    50.00 Ry     beta= 0.50
     Davidson diagonalization with overlap

---- Real-time Memory Report at c_bands before calling an iterative solver
           236 MiB given to the printing process from OS
             0 MiB allocation reported by mallinfo(arena+hblkhd)
          6522 MiB available memory on the node where the printing process lives
------------------
     ethr =  3.01E-12,  avg # of iterations =  1.1

     total cpu time spent up to now is        3.3 secs

     total energy              =    -216.15055798 Ry
     estimated scf accuracy    <          2.5E-10 Ry

     iteration # 12     ecut=    50.00 Ry     beta= 0.50
     Davidson diagonalization with overlap

---- Real-time Memory Report at c_bands before calling an iterative solver
           236 MiB given to the printing process from OS
             0 MiB allocation reported by mallinfo(arena+hblkhd)
          6521 MiB available memory on the node where the printing process lives
------------------
     ethr =  5.25E-13,  avg # of iterations =  2.0

     total cpu time spent up to now is        3.6 secs

     End of self-consistent calculation

          k = 0.0000 0.0000 0.0000 (  4571 PWs)   bands (ev):

   -16.9253 -15.3885 -15.3885 -14.7456 -14.7090 -14.7090  -5.6563  -5.6563
    -2.8561  -2.8304  -2.6568  -2.6568  -0.3341  -0.3341  -0.0912   0.1562
     1.1012   1.1012   1.1312   1.6106   1.6106   1.9232   2.3110   2.3110
     8.6002

     occupation numbers 
     1.0000   1.0000   1.0000   1.0000   1.0000   1.0000   1.0000   1.0000
     1.0000   1.0000   1.0000   1.0000   1.0000   1.0000   1.0000   1.0000
     1.0000   1.0000   1.0000   1.0000   1.0000   1.0000   1.0000   1.0000
     0.0000

          k = 0.0000 0.0000-0.2273 (  4558 PWs)   bands (ev):

   -16.4564 -16.4564 -14.7507 -14.7367 -14.7367 -14.6850  -6.7477  -3.6773
    -3.6773  -3.0258  -3.0258  -2.0716  -0.1170  -0.1170  -0.0187   0.6036
     0.6036   0.7746   0.7746   1.0753   1.3927   2.4113   2.4113   2.5341
    10.5743

     occupation numbers 
     1.0000   1.0000   1.0000   1.0000   1.0000   1.0000   1.0000   1.0000
     1.0000   1.0000   1.0000   1.0000   1.0000   1.0000   1.0000   1.0000
     1.0000   1.0000   1.0000   1.0000   1.0000   1.0000   1.0000   1.0000
     0.0000

          k =-0.2500-0.1443 0.0000 (  4520 PWs)   bands (ev):

   -16.4332 -15.9543 -15.3378 -14.8037 -14.7656 -14.7418  -5.7979  -4.7915
    -3.2987  -2.8535  -2.8279  -2.0288  -0.4684  -0.3035  -0.0698   0.3162
     0.5160   0.8626   0.9411   1.5155   1.5845   1.8436   2.3566   2.5920
    10.8985

     occupation numbers 
     1.0000   1.0000   1.0000   1.0000   1.0000   1.0000   1.0000   1.0000
     1.0000   1.0000   1.0000   1.0000   1.0000   1.0000   1.0000   1.0000
     1.0000   1.0000   1.0000   1.0000   1.0000   1.0000   1.0000   1.0000
     0.0000

          k =-0.2500-0.1443-0.2273 (  4536 PWs)   bands (ev):

   -16.3642 -15.9207 -15.4684 -14.8280 -14.7522 -14.7309  -5.6476  -4.6758
    -3.8076  -2.7410  -2.4667  -2.3566  -0.6090  -0.5893   0.1695   0.5032
     0.5148   1.0635   1.3477   1.4698   1.7312   1.7802   2.0261   2.4292
    11.5678

     occupation numbers 
     1.0000   1.0000   1.0000   1.0000   1.0000   1.0000   1.0000   1.0000
     1.0000   1.0000   1.0000   1.0000   1.0000   1.0000   1.0000   1.0000
     1.0000   1.0000   1.0000   1.0000   1.0000   1.0000   1.0000   1.0000
     0.0000

          k =-0.2500 0.1443 0.0000 (  4520 PWs)   bands (ev):

   -16.4332 -15.9543 -15.3378 -14.8037 -14.7656 -14.7418  -5.7979  -4.7915
    -3.2987  -2.8535  -2.8279  -2.0288  -0.4684  -0.3035  -0.0698   0.3162
     0.5160   0.8626   0.9411   1.5155   1.5845   1.8436   2.3566   2.5920
    10.8985

     occupation numbers 
     1.0000   1.0000   1.0000   1.0000   1.0000   1.0000   1.0000   1.0000
     1.0000   1.0000   1.0000   1.0000   1.0000   1.0000   1.0000   1.0000
     1.0000   1.0000   1.0000   1.0000   1.0000   1.0000   1.0000   1.0000
     0.0000

          k =-0.2500 0.1443-0.2273 (  4536 PWs)   bands (ev):

   -16.3642 -15.9207 -15.4684 -14.8280 -14.7522 -14.7309  -5.6476  -4.6758
    -3.8076  -2.7410  -2.4667  -2.3566  -0.6090  -0.5893   0.1695   0.5032
     0.5148   1.0635   1.3477   1.4698   1.7312   1.7802   2.0261   2.4292
    11.5678

     occupation numbers 
     1.0000   1.0000   1.0000   1.0000   1.0000   1.0000   1.0000   1.0000
     1.0000   1.0000   1.0000   1.0000   1.0000   1.0000   1.0000   1.0000
     1.0000   1.0000   1.0000   1.0000   1.0000   1.0000   1.0000   1.0000
     0.0000

          k =-0.5000 0.0000 0.0000 (  4520 PWs)   bands (ev):

   -16.4332 -15.9542 -15.3378 -14.8037 -14.7656 -14.7418  -5.7979  -4.7915
    -3.2987  -2.8535  -2.8279  -2.0288  -0.4684  -0.3035  -0.0698   0.3162
     0.5160   0.8626   0.9411   1.5155   1.5845   1.8436   2.3566   2.5920
    10.8985

     occupation numbers 
     1.0000   1.0000   1.0000   1.0000   1.0000   1.0000   1.0000   1.0000
     1.0000   1.0000   1.0000   1.0000   1.0000   1.0000   1.0000   1.0000
     1.0000   1.0000   1.0000   1.0000   1.0000   1.0000   1.0000   1.0000
     0.0000

          k =-0.5000 0.0000-0.2273 (  4536 PWs)   bands (ev):

   -16.3642 -15.9207 -15.4683 -14.8280 -14.7522 -14.7309  -5.6476  -4.6758
    -3.8076  -2.7410  -2.4667  -2.3567  -0.6090  -0.5893   0.1695   0.5032
     0.5148   1.0635   1.3477   1.4698   1.7312   1.7802   2.0261   2.4292
    11.5678

     occupation numbers 
     1.0000   1.0000   1.0000   1.0000   1.0000   1.0000   1.0000   1.0000
     1.0000   1.0000   1.0000   1.0000   1.0000   1.0000   1.0000   1.0000
     1.0000   1.0000   1.0000   1.0000   1.0000   1.0000   1.0000   1.0000
     0.0000

     highest occupied, lowest unoccupied level (ev):     2.5920    8.6002

!    total energy              =    -216.15055798 Ry
     estimated scf accuracy    <          8.2E-13 Ry

     The total energy is the sum of the following terms:
     one-electron contribution =    -103.81761324 Ry
     hartree contribution      =      77.41483683 Ry
     xc contribution           =     -50.78581712 Ry
     ewald contribution        =    -138.96196445 Ry

     convergence has been achieved in  12 iterations

     Writing all to output data dir ./scratch/quartz.save/ :
     XML data file, charge density, pseudopotentials, collected wavefunctions

     init_run     :      0.38s CPU      0.40s WALL (       1 calls)
     electrons    :      2.95s CPU      3.09s WALL (       1 calls)

     Called by init_run:
     wfcinit      :      0.23s CPU      0.24s WALL (       1 calls)
     wfcinit:atom :      0.00s CPU      0.00s WALL (       8 calls)
     wfcinit:wfcr :      0.21s CPU      0.21s WALL (       8 calls)
     potinit      :      0.01s CPU      0.02s WALL (       1 calls)
     hinit0       :      0.13s CPU      0.14s WALL (       1 calls)

     Called by electrons:
     c_bands      :      2.46s CPU      2.56s WALL (      12 calls)
     sum_band     :      0.40s CPU      0.43s WALL (      12 calls)
     v_of_rho     :      0.08s CPU      0.09s WALL (      13 calls)
     v_h          :      0.00s CPU      0.00s WALL (      13 calls)
     v_xc         :      0.08s CPU      0.08s WALL (      13 calls)
     mix_rho      :      0.01s CPU      0.02s WALL (      12 calls)

     Called by c_bands:
     init_us_2    :      0.02s CPU      0.02s WALL (     200 calls)
     cegterg      :      2.42s CPU      2.52s WALL (      96 calls)

     Called by sum_band:
     sum_band:wei :      0.00s CPU      0.00s WALL (      12 calls)
     sum_band:loo :      0.40s CPU      0.42s WALL (      12 calls)
     sum_band:buf :      0.00s CPU      0.00s WALL (      96 calls)
     sum_band:ini :      0.01s CPU      0.01s WALL (      96 calls)

     Called by *egterg:
     cdiaghg      :      0.14s CPU      0.14s WALL (     345 calls)
     cegterg:over :      0.10s CPU      0.11s WALL (     249 calls)
     cegterg:upda :      0.05s CPU      0.06s WALL (     249 calls)
     cegterg:last :      0.09s CPU      0.09s WALL (     206 calls)
     h_psi        :      2.16s CPU      2.26s WALL (     353 calls)
     g_psi        :      0.02s CPU      0.02s WALL (     249 calls)

     Called by h_psi:
     h_psi:calbec :      0.06s CPU      0.07s WALL (     353 calls)
     vloc_psi     :      2.06s CPU      2.15s WALL (     353 calls)
                                        0.00s GPU  (     353 calls)
     add_vuspsi   :      0.03s CPU      0.03s WALL (     353 calls)

     General routines
     calbec       :      0.06s CPU      0.07s WALL (     353 calls)
     fft          :      0.16s CPU      0.16s WALL (     129 calls)
     ffts         :      0.00s CPU      0.00s WALL (      12 calls)
     fftw         :      2.23s CPU      2.34s WALL (   17890 calls)

     Parallel routines

     PWSCF        :      3.41s CPU      3.57s WALL


   This run was terminated on:   9:16:46   5Mar2026            

=------------------------------------------------------------------------------=
   JOB DONE.
=------------------------------------------------------------------------------=
