
     Program PWSCF v.7.5 starts on  8Apr2026 at  9:52: 1 

     This program is part of the open-source Quantum ESPRESSO suite
     for quantum simulation of materials; please cite
         "P. Giannozzi et al., J. Phys.:Condens. Matter 21 395502 (2009);
         "P. Giannozzi et al., J. Phys.:Condens. Matter 29 465901 (2017);
         "P. Giannozzi et al., J. Chem. Phys. 152 154105 (2020);
          URL http://www.quantum-espresso.org", 
     in publications or presentations arising from this work. More details at
     http://www.quantum-espresso.org/quote

     Parallel version (MPI), running on     9 processors

     MPI processes distributed on     1 nodes
     2173 MiB available memory on the printing compute node when the environment starts

     Waiting for input...
     Reading input from standard input

     Current dimensions of program PWSCF are:
     Max number of different atomic species (ntypx) = 10
     Max number of k-points (npk) =  40000
     Max angular momentum in pseudopotentials (lmaxx) =  4
     Found identity + ( -0.3333  0.3333  0.3333) symmetry
     This is a supercell, fractional translations are disabled

     K-points division:     npool     =       9
     Subspace diagonalization in iterative solution of the eigenvalue problem:
     a serial algorithm will be used


     G-vector sticks info
     --------------------
     sticks:   dense  smooth     PW     G-vecs:    dense   smooth      PW
     Sum         625     625    187                62045    62045   10023

     Using Slab Decomposition



     bravais-lattice index     =            0
     lattice parameter (alat)  =       5.3125  a.u.
     unit-cell volume          =     642.4487 (a.u.)^3
     number of atoms/cell      =           12
     number of atomic types    =            3
     number of electrons       =        96.00
     number of Kohn-Sham states=           58
     kinetic-energy cutoff     =      80.0000  Ry
     charge density cutoff     =     320.0000  Ry
     scf convergence threshold =      1.0E-09
     mixing beta               =       0.7000
     number of iterations used =            8  plain     mixing
     Exchange-correlation= PBESOL
                           (   1   4  10   8   0   0   0)
     Hubbard projectors: ortho-atomic
     Hubbard parameters of DFT+U (Dudarev formulation) in eV:
     U(Co-3d) =  8.0000

     Internal variables: lda_plus_u =T, lda_plus_u_kind = 0

     Internal variables: orbital_resolved =F, hub_pot_fix =F, apply_U = F

     celldm(1)=   5.312506  celldm(2)=   0.000000  celldm(3)=   0.000000
     celldm(4)=   0.000000  celldm(5)=   0.000000  celldm(6)=   0.000000

     crystal axes: (cart. coord. in units of alat)
               a(1) = (   1.000000   0.000000   0.000000 )  
               a(2) = (  -0.500000   0.866025   0.000000 )  
               a(3) = (   0.000000   0.000000   4.947771 )  

     reciprocal axes: (cart. coord. in units 2 pi/alat)
               b(1) = (  1.000000  0.577350 -0.000000 )  
               b(2) = (  0.000000  1.154701  0.000000 )  
               b(3) = (  0.000000 -0.000000  0.202111 )  


     PseudoPot. # 1 for Li read from file:
     ../gipaw_pbesol/Li.upf
     MD5 check sum: 2c3f7206a83e0377623db4409c6c79e9
     Pseudo is Norm-conserving, Zval =  3.0
     Generated using ONCVPSP code by D. R. Hamann
     Using radial grid of 2291 points,  4 beta functions with: 
                l(1) =   0
                l(2) =   0
                l(3) =   1
                l(4) =   1

     PseudoPot. # 2 for Co read from file:
     ../gipaw_pbesol/Co.upf
     MD5 check sum: f2428d26478bfd09ec3196392c02c2d9
     Pseudo is Norm-conserving + core correction, Zval = 17.0
     Generated using ONCVPSP code by D. R. Hamann
     Using radial grid of 2457 points,  6 beta functions with: 
                l(1) =   0
                l(2) =   0
                l(3) =   1
                l(4) =   1
                l(5) =   2
                l(6) =   2

     PseudoPot. # 3 for O  read from file:
     ../gipaw_pbesol/O.upf
     MD5 check sum: 8ffcb3d6b30c76e569ef9251d97b1465
     Pseudo is Norm-conserving + core correction, Zval =  6.0
     Generated using ONCVPSP code by D. R. Hamann
     Using radial grid of 2291 points,  5 beta functions with: 
                l(1) =   0
                l(2) =   0
                l(3) =   1
                l(4) =   1
                l(5) =   2

     atomic species   valence    mass     pseudopotential
     Li                3.00     6.94000     Li( 1.00)
     Co               17.00    58.93319     Co( 1.00)
     O                 6.00    15.99900     O ( 1.00)

     No symmetry found



   Cartesian axes

     site n.     atom                  positions (alat units)
         1        Li     tau(   1) = (   0.0000000   0.0000000   0.0000000  )
         2        Li     tau(   2) = (   0.5000000   0.2886751   1.6492571  )
         3        Li     tau(   3) = (  -0.0000000   0.5773503   3.2985142  )
         4        Co     tau(   4) = (  -0.0000000   0.5773503   0.8246286  )
         5        Co     tau(   5) = (   1.0000000   0.0000000   2.4738856  )
         6        Co     tau(   6) = (   0.5000000   0.2886751   4.1231427  )
         7        O      tau(   7) = (   0.0000000   0.0000000   1.1874987  )
         8        O      tau(   8) = (   0.5000000   0.2886751   0.4617583  )
         9        O      tau(   9) = (   0.5000000   0.2886751   2.8367558  )
        10        O      tau(  10) = (  -0.0000000   0.5773503   2.1110154  )
        11        O      tau(  11) = (  -0.0000000   0.5773503   4.4860129  )
        12        O      tau(  12) = (   0.0000000   0.0000000   3.7602725  )

     number of k points=     9  Gaussian smearing, width (Ry)=  0.0000
                       cart. coord. in units 2pi/alat
        k(    1) = (   0.0000000   0.0000000   0.0000000), wk =   0.2222222
        k(    2) = (   0.0000000   0.3849002   0.0000000), wk =   0.2222222
        k(    3) = (   0.0000000  -0.3849002   0.0000000), wk =   0.2222222
        k(    4) = (   0.3333333   0.1924501   0.0000000), wk =   0.2222222
        k(    5) = (   0.3333333   0.5773503   0.0000000), wk =   0.2222222
        k(    6) = (   0.3333333  -0.1924501   0.0000000), wk =   0.2222222
        k(    7) = (  -0.3333333  -0.1924501   0.0000000), wk =   0.2222222
        k(    8) = (  -0.3333333   0.1924501   0.0000000), wk =   0.2222222
        k(    9) = (  -0.3333333  -0.5773503   0.0000000), wk =   0.2222222

     Dense  grid:    62045 G-vectors     FFT dimensions: (  32,  32, 150)

     Estimated max dynamical RAM per process >      99.80 MB

     Estimated total dynamical RAM >     777.02 MB

     Initial potential from superposition of free atoms

     starting charge      95.9846, renormalised to      96.0000

     STARTING HUBBARD OCCUPATIONS:

     =================== HUBBARD OCCUPATIONS ===================
     ------------------------ ATOM    4 ------------------------
     Tr[ns(  4)] =   7.00000
     eigenvalues:
       0.700  0.700  0.700  0.700  0.700
     eigenvectors (columns):
       1.000  0.000  0.000  0.000  0.000
       0.000  1.000  0.000  0.000  0.000
       0.000  0.000  1.000  0.000  0.000
       0.000  0.000  0.000  1.000  0.000
       0.000  0.000  0.000  0.000  1.000
     occupation matrix ns (before diag.):
       0.700  0.000  0.000  0.000  0.000
       0.000  0.700  0.000  0.000  0.000
       0.000  0.000  0.700  0.000  0.000
       0.000  0.000  0.000  0.700  0.000
       0.000  0.000  0.000  0.000  0.700
     ------------------------ ATOM    5 ------------------------
     Tr[ns(  5)] =   7.00000
     eigenvalues:
       0.700  0.700  0.700  0.700  0.700
     eigenvectors (columns):
       1.000  0.000  0.000  0.000  0.000
       0.000  1.000  0.000  0.000  0.000
       0.000  0.000  1.000  0.000  0.000
       0.000  0.000  0.000  1.000  0.000
       0.000  0.000  0.000  0.000  1.000
     occupation matrix ns (before diag.):
       0.700  0.000  0.000  0.000  0.000
       0.000  0.700  0.000  0.000  0.000
       0.000  0.000  0.700  0.000  0.000
       0.000  0.000  0.000  0.700  0.000
       0.000  0.000  0.000  0.000  0.700
     ------------------------ ATOM    6 ------------------------
     Tr[ns(  6)] =   7.00000
     eigenvalues:
       0.700  0.700  0.700  0.700  0.700
     eigenvectors (columns):
       1.000  0.000  0.000  0.000  0.000
       0.000  1.000  0.000  0.000  0.000
       0.000  0.000  1.000  0.000  0.000
       0.000  0.000  0.000  1.000  0.000
       0.000  0.000  0.000  0.000  1.000
     occupation matrix ns (before diag.):
       0.700  0.000  0.000  0.000  0.000
       0.000  0.700  0.000  0.000  0.000
       0.000  0.000  0.700  0.000  0.000
       0.000  0.000  0.000  0.700  0.000
       0.000  0.000  0.000  0.000  0.700

     Number of occupied Hubbard levels =   21.0000

     Atomic wfc used for Hubbard projectors are orthogonalized

     Starting wfcs are   60 randomized atomic wfcs

     total cpu time spent up to now is        2.0 secs

     Self-consistent Calculation

     iteration #  1     ecut=    80.00 Ry     beta= 0.70
     Davidson diagonalization with overlap
     ethr =  1.00E-02,  avg # of iterations =  5.0

     =================== HUBBARD OCCUPATIONS ===================
     ------------------------ ATOM    4 ------------------------
     Tr[ns(  4)] =   7.31080
     eigenvalues:
       0.353  0.353  0.983  0.983  0.983
     eigenvectors (columns):
      -0.000  0.000 -0.999 -0.031 -0.008
      -0.567 -0.567 -0.012  0.238  0.548
       0.567 -0.567  0.015 -0.548  0.238
      -0.422  0.423  0.021 -0.735  0.320
       0.423  0.422 -0.016  0.319  0.735
     occupation matrix ns (before diag.):
       0.983 -0.000  0.000  0.000 -0.000
      -0.000  0.578  0.000  0.000  0.302
       0.000  0.000  0.578  0.302 -0.000
       0.000  0.000  0.302  0.758  0.000
      -0.000  0.302 -0.000  0.000  0.758
     ------------------------ ATOM    5 ------------------------
     Tr[ns(  5)] =   7.31085
     eigenvalues:
       0.353  0.353  0.983  0.983  0.983
     eigenvectors (columns):
       0.000  0.000 -1.000 -0.004  0.011
      -0.065  0.799  0.007 -0.232  0.551
      -0.799 -0.065 -0.000 -0.551 -0.232
       0.596  0.049 -0.000 -0.739 -0.311
       0.049 -0.596  0.010 -0.311  0.739
     occupation matrix ns (before diag.):
       0.983  0.000  0.000 -0.000  0.000
       0.000  0.578 -0.000 -0.000  0.302
       0.000 -0.000  0.578  0.302 -0.000
      -0.000 -0.000  0.302  0.758 -0.000
       0.000  0.302 -0.000 -0.000  0.758
     ------------------------ ATOM    6 ------------------------
     Tr[ns(  6)] =   7.31078
     eigenvalues:
       0.353  0.353  0.983  0.983  0.983
     eigenvectors (columns):
      -0.000 -0.000  1.000 -0.010  0.013
      -0.648  0.472 -0.007  0.071  0.593
       0.472  0.648 -0.007 -0.593  0.071
      -0.352 -0.483 -0.009 -0.796  0.096
       0.483 -0.352 -0.009  0.096  0.796
     occupation matrix ns (before diag.):
       0.983  0.000  0.000 -0.000  0.000
       0.000  0.578  0.000  0.000  0.302
       0.000  0.000  0.578  0.302 -0.000
      -0.000  0.000  0.302  0.758  0.000
       0.000  0.302 -0.000  0.000  0.758

     Number of occupied Hubbard levels =   21.9324

     total cpu time spent up to now is        2.9 secs

     total energy              =   -1086.54714772 Ry
     estimated scf accuracy    <       1.03165099 Ry

     iteration #  2     ecut=    80.00 Ry     beta= 0.70
     Davidson diagonalization with overlap
     ethr =  1.07E-03,  avg # of iterations =  3.1

     total cpu time spent up to now is        3.7 secs

     total energy              =   -1086.51394164 Ry
     estimated scf accuracy    <       1.47339975 Ry

     iteration #  3     ecut=    80.00 Ry     beta= 0.70
     Davidson diagonalization with overlap
     ethr =  1.07E-03,  avg # of iterations =  2.6

     total cpu time spent up to now is        4.5 secs

     total energy              =   -1086.88796836 Ry
     estimated scf accuracy    <       0.64710337 Ry

     iteration #  4     ecut=    80.00 Ry     beta= 0.70
     Davidson diagonalization with overlap
     ethr =  6.74E-04,  avg # of iterations =  1.0

     total cpu time spent up to now is        5.2 secs

     total energy              =   -1086.90863902 Ry
     estimated scf accuracy    <       0.07429887 Ry

     iteration #  5     ecut=    80.00 Ry     beta= 0.70
     Davidson diagonalization with overlap
     ethr =  7.74E-05,  avg # of iterations =  5.6

     total cpu time spent up to now is        6.0 secs

     total energy              =   -1086.91930543 Ry
     estimated scf accuracy    <       0.00216621 Ry

     iteration #  6     ecut=    80.00 Ry     beta= 0.70
     Davidson diagonalization with overlap
     ethr =  2.26E-06,  avg # of iterations =  8.9

     total cpu time spent up to now is        7.0 secs

     total energy              =   -1086.91943064 Ry
     estimated scf accuracy    <       0.00118406 Ry

     iteration #  7     ecut=    80.00 Ry     beta= 0.70
     Davidson diagonalization with overlap
     ethr =  1.23E-06,  avg # of iterations =  8.9

     total cpu time spent up to now is        7.9 secs

     total energy              =   -1086.91965304 Ry
     estimated scf accuracy    <       0.00056508 Ry

     iteration #  8     ecut=    80.00 Ry     beta= 0.70
     Davidson diagonalization with overlap
     ethr =  5.89E-07,  avg # of iterations =  5.1

     total cpu time spent up to now is        8.8 secs

     total energy              =   -1086.91971902 Ry
     estimated scf accuracy    <       0.00013468 Ry

     iteration #  9     ecut=    80.00 Ry     beta= 0.70
     Davidson diagonalization with overlap
     ethr =  1.40E-07,  avg # of iterations =  1.2

     total cpu time spent up to now is        9.5 secs

     total energy              =   -1086.91971629 Ry
     estimated scf accuracy    <       0.00005081 Ry

     iteration # 10     ecut=    80.00 Ry     beta= 0.70
     Davidson diagonalization with overlap
     ethr =  5.29E-08,  avg # of iterations =  2.0

     total cpu time spent up to now is       10.3 secs

     total energy              =   -1086.91972118 Ry
     estimated scf accuracy    <       0.00000092 Ry

     iteration # 11     ecut=    80.00 Ry     beta= 0.70
     Davidson diagonalization with overlap
     ethr =  9.56E-10,  avg # of iterations =  2.2

     total cpu time spent up to now is       11.2 secs

     total energy              =   -1086.91972138 Ry
     estimated scf accuracy    <       0.00000067 Ry

     iteration # 12     ecut=    80.00 Ry     beta= 0.70
     Davidson diagonalization with overlap
     ethr =  6.98E-10,  avg # of iterations =  2.0

     total cpu time spent up to now is       12.0 secs

     total energy              =   -1086.91972147 Ry
     estimated scf accuracy    <       0.00000006 Ry

     iteration # 13     ecut=    80.00 Ry     beta= 0.70
     Davidson diagonalization with overlap
     ethr =  6.27E-11,  avg # of iterations =  2.0

     total cpu time spent up to now is       12.7 secs

     total energy              =   -1086.91972148 Ry
     estimated scf accuracy    <       0.00000001 Ry

     iteration # 14     ecut=    80.00 Ry     beta= 0.70
     Davidson diagonalization with overlap
     ethr =  1.33E-11,  avg # of iterations =  2.0

     total cpu time spent up to now is       13.5 secs

     total energy              =   -1086.91972148 Ry
     estimated scf accuracy    <          1.9E-09 Ry

     iteration # 15     ecut=    80.00 Ry     beta= 0.70
     Davidson diagonalization with overlap
     ethr =  2.01E-12,  avg # of iterations =  2.0

     total cpu time spent up to now is       14.4 secs

     End of self-consistent calculation

     =================== HUBBARD OCCUPATIONS ===================
     ------------------------ ATOM    4 ------------------------
     Tr[ns(  4)] =   7.31446
     eigenvalues:
       0.335  0.335  0.996  0.996  0.996
     eigenvectors (columns):
       0.000 -0.000  1.000  0.000 -0.000
       0.486  0.638  0.000  0.116  0.586
      -0.638  0.486  0.000 -0.586  0.116
       0.475 -0.362  0.000 -0.786  0.156
      -0.362 -0.475  0.000  0.156  0.786
     occupation matrix ns (before diag.):
       0.996  0.000  0.000 -0.000 -0.000
       0.000  0.571 -0.000  0.000  0.317
       0.000 -0.000  0.571  0.317 -0.000
      -0.000  0.000  0.317  0.760  0.000
      -0.000  0.317 -0.000  0.000  0.760
     ------------------------ ATOM    5 ------------------------
     Tr[ns(  5)] =   7.31445
     eigenvalues:
       0.335  0.335  0.996  0.996  0.996
     eigenvectors (columns):
       0.000  0.000  1.000 -0.000 -0.000
       0.581 -0.552  0.000  0.409  0.436
      -0.552 -0.581 -0.000 -0.436  0.409
       0.412  0.433 -0.000 -0.585  0.549
      -0.433  0.412  0.000  0.549  0.585
     occupation matrix ns (before diag.):
       0.996 -0.000  0.000 -0.000  0.000
      -0.000  0.571 -0.000 -0.000  0.317
       0.000 -0.000  0.571  0.317  0.000
      -0.000 -0.000  0.317  0.760  0.000
       0.000  0.317  0.000  0.000  0.760
     ------------------------ ATOM    6 ------------------------
     Tr[ns(  6)] =   7.31446
     eigenvalues:
       0.335  0.335  0.996  0.996  0.996
     eigenvectors (columns):
       0.000  0.000  1.000 -0.000  0.000
       0.374  0.709 -0.000 -0.398  0.446
      -0.709  0.374  0.000 -0.446 -0.398
       0.529 -0.279  0.000 -0.599 -0.533
      -0.279 -0.529 -0.000 -0.533  0.599
     occupation matrix ns (before diag.):
       0.996 -0.000  0.000 -0.000  0.000
      -0.000  0.571  0.000  0.000  0.317
       0.000  0.000  0.571  0.317 -0.000
      -0.000  0.000  0.317  0.760 -0.000
       0.000  0.317 -0.000 -0.000  0.760

     Number of occupied Hubbard levels =   21.9434

          k = 0.0000 0.0000 0.0000 (  7749 PWs)   bands (ev):

   -83.8504 -83.8500 -83.8498 -47.2395 -47.2395 -47.2394 -47.2394 -47.2394
   -47.2393 -47.1337 -47.1336 -47.1335 -32.2959 -32.2949 -32.2948  -8.4702
    -8.3697  -8.3696  -6.7656  -6.7655  -6.5918   3.1711   3.6236   3.6237
     5.2202   5.2202   5.2203   5.2203   5.2237   5.2237   7.5825   7.5825
     7.6219   7.6219   7.6220   7.6220   8.0688   8.0688   8.4956   9.1855
     9.1855   9.5011   9.5068   9.5068   9.5068   9.5068   9.5676   9.5676
    13.9383  13.9383  13.9464  13.9464  13.9465  13.9465  17.4788  18.3073
    18.3074  19.3442

          k = 0.0000 0.3849 0.0000 (  7769 PWs)   bands (ev):

   -83.8437 -83.8436 -83.8435 -47.2979 -47.2978 -47.2978 -47.2535 -47.2534
   -47.2533 -47.1245 -47.1245 -47.1244 -32.2652 -32.2650 -32.2646  -7.3616
    -7.2712  -7.2474  -6.5668  -6.5323  -6.4224   3.4856   3.5198   3.5576
     4.5294   4.8542   4.9552   5.5889   5.7719   5.9841   5.9923   6.0170
     6.0183   6.9366   7.0215   7.0512   7.6654   7.9006   7.9180   8.3703
     8.4736   8.6887   8.9068   8.9309   8.9776   9.0528   9.0787   9.1994
    13.1797  13.4733  13.5076  13.7599  13.8650  13.9133  19.3804  19.7945
    20.7227  21.8936

          k = 0.0000-0.3849 0.0000 (  7769 PWs)   bands (ev):

   -83.8437 -83.8436 -83.8435 -47.2979 -47.2978 -47.2978 -47.2535 -47.2534
   -47.2533 -47.1245 -47.1245 -47.1244 -32.2652 -32.2650 -32.2646  -7.3616
    -7.2712  -7.2474  -6.5668  -6.5323  -6.4224   3.4856   3.5198   3.5576
     4.5294   4.8542   4.9552   5.5889   5.7719   5.9841   5.9923   6.0170
     6.0183   6.9366   7.0215   7.0512   7.6654   7.9006   7.9180   8.3703
     8.4736   8.6887   8.9068   8.9309   8.9776   9.0528   9.0787   9.1994
    13.1797  13.4733  13.5076  13.7599  13.8650  13.9133  19.3804  19.7945
    20.7227  21.8936

          k = 0.3333 0.1925 0.0000 (  7769 PWs)   bands (ev):

   -83.8437 -83.8436 -83.8435 -47.2979 -47.2979 -47.2978 -47.2535 -47.2534
   -47.2533 -47.1245 -47.1245 -47.1244 -32.2652 -32.2650 -32.2646  -7.3616
    -7.2712  -7.2474  -6.5668  -6.5323  -6.4224   3.4856   3.5198   3.5576
     4.5294   4.8542   4.9552   5.5889   5.7719   5.9841   5.9923   6.0170
     6.0183   6.9366   7.0215   7.0512   7.6654   7.9006   7.9180   8.3703
     8.4736   8.6887   8.9068   8.9309   8.9776   9.0528   9.0787   9.1994
    13.1797  13.4733  13.5076  13.7599  13.8650  13.9133  19.3804  19.7945
    20.7227  21.8936

          k = 0.3333 0.5774 0.0000 (  7752 PWs)   bands (ev):

   -83.8408 -83.8407 -83.8406 -47.2940 -47.2940 -47.2939 -47.2939 -47.2938
   -47.2938 -47.1200 -47.1199 -47.1198 -32.2501 -32.2500 -32.2500  -6.5214
    -6.5214  -6.5213  -6.5212  -6.5212  -6.5212   3.9962   3.9963   3.9963
     4.0254   4.0254   4.0254   5.0443   5.0443   5.0444   6.8940   6.8940
     6.8940   6.9386   6.9386   6.9387   7.3738   7.3739   7.3739   7.6338
     7.6338   7.6338   8.5751   8.5752   8.5752   8.6606   8.6606   8.6606
    13.5332  13.5332  13.5333  13.5533  13.5534  13.5534  21.5945  21.5946
    21.5946  21.6575

          k = 0.3333-0.1925 0.0000 (  7769 PWs)   bands (ev):

   -83.8437 -83.8436 -83.8435 -47.2979 -47.2979 -47.2978 -47.2535 -47.2534
   -47.2533 -47.1245 -47.1245 -47.1244 -32.2652 -32.2650 -32.2646  -7.3616
    -7.2712  -7.2474  -6.5668  -6.5323  -6.4224   3.4856   3.5198   3.5576
     4.5294   4.8542   4.9552   5.5889   5.7719   5.9841   5.9923   6.0170
     6.0183   6.9366   7.0215   7.0512   7.6654   7.9006   7.9180   8.3703
     8.4736   8.6887   8.9068   8.9309   8.9776   9.0528   9.0787   9.1994
    13.1797  13.4733  13.5076  13.7599  13.8650  13.9133  19.3804  19.7945
    20.7227  21.8936

          k =-0.3333-0.1925 0.0000 (  7769 PWs)   bands (ev):

   -83.8437 -83.8436 -83.8435 -47.2979 -47.2979 -47.2978 -47.2535 -47.2534
   -47.2533 -47.1245 -47.1245 -47.1244 -32.2652 -32.2650 -32.2646  -7.3616
    -7.2712  -7.2474  -6.5668  -6.5323  -6.4224   3.4856   3.5198   3.5576
     4.5294   4.8542   4.9552   5.5889   5.7719   5.9841   5.9923   6.0170
     6.0183   6.9366   7.0215   7.0512   7.6654   7.9006   7.9180   8.3703
     8.4736   8.6887   8.9068   8.9309   8.9776   9.0528   9.0787   9.1994
    13.1797  13.4733  13.5076  13.7599  13.8650  13.9133  19.3804  19.7945
    20.7227  21.8936

          k =-0.3333 0.1925 0.0000 (  7769 PWs)   bands (ev):

   -83.8437 -83.8436 -83.8435 -47.2979 -47.2979 -47.2978 -47.2535 -47.2534
   -47.2533 -47.1245 -47.1245 -47.1244 -32.2652 -32.2650 -32.2646  -7.3616
    -7.2712  -7.2474  -6.5668  -6.5323  -6.4224   3.4856   3.5198   3.5576
     4.5294   4.8542   4.9552   5.5889   5.7719   5.9841   5.9923   6.0170
     6.0183   6.9366   7.0215   7.0512   7.6654   7.9006   7.9180   8.3703
     8.4736   8.6887   8.9068   8.9309   8.9776   9.0528   9.0787   9.1994
    13.1797  13.4733  13.5076  13.7599  13.8650  13.9133  19.3804  19.7945
    20.7227  21.8936

          k =-0.3333-0.5774 0.0000 (  7752 PWs)   bands (ev):

   -83.8408 -83.8407 -83.8406 -47.2940 -47.2940 -47.2939 -47.2939 -47.2938
   -47.2938 -47.1200 -47.1199 -47.1198 -32.2501 -32.2500 -32.2500  -6.5214
    -6.5214  -6.5213  -6.5212  -6.5212  -6.5212   3.9962   3.9963   3.9963
     4.0254   4.0254   4.0254   5.0443   5.0443   5.0444   6.8940   6.8940
     6.8940   6.9386   6.9386   6.9387   7.3738   7.3739   7.3739   7.6338
     7.6338   7.6338   8.5751   8.5752   8.5752   8.6606   8.6606   8.6606
    13.5332  13.5332  13.5333  13.5533  13.5534  13.5534  21.5945  21.5946
    21.5946  21.6575

     the Fermi energy is    11.9802 ev

!    total energy              =   -1086.91972148 Ry
     estimated scf accuracy    <          4.2E-10 Ry
     smearing contrib. (-TS)   =      -0.00000000 Ry
     internal energy E=F+TS    =   -1086.91972148 Ry

     The total energy is F=E-TS. E is the sum of the following terms:
     one-electron contribution =    -600.23999723 Ry
     hartree contribution      =     347.80824994 Ry
     xc contribution           =    -195.93367829 Ry
     ewald contribution        =    -639.36044164 Ry
     Hubbard energy            =       0.80614574 Ry

     convergence has been achieved in  15 iterations

     Writing all to output data dir ./scratch/licoo2.save/ :
     XML data file, charge density, pseudopotentials, collected wavefunctions

     init_run     :      1.68s CPU      1.71s WALL (       1 calls)
     electrons    :     12.20s CPU     12.39s WALL (       1 calls)

     Called by init_run:
     wfcinit      :      0.51s CPU      0.52s WALL (       1 calls)
     potinit      :      0.35s CPU      0.36s WALL (       1 calls)
     hinit0       :      0.81s CPU      0.81s WALL (       1 calls)

     Called by electrons:
     c_bands      :      9.61s CPU      9.75s WALL (      15 calls)
     sum_band     :      1.57s CPU      1.60s WALL (      15 calls)
     v_of_rho     :      0.82s CPU      0.84s WALL (      16 calls)
     mix_rho      :      0.09s CPU      0.09s WALL (      15 calls)

     Called by c_bands:
     init_us_2    :      0.39s CPU      0.39s WALL (      32 calls)
     cegterg      :      7.73s CPU      7.80s WALL (      15 calls)

     Called by *egterg:
     cdiaghg      :      0.17s CPU      0.17s WALL (      60 calls)
     h_psi        :      6.36s CPU      6.43s WALL (      61 calls)
     g_psi        :      0.05s CPU      0.05s WALL (      45 calls)

     Called by h_psi:
     h_psi:calbec :      0.66s CPU      0.67s WALL (      61 calls)
     vloc_psi     :      4.85s CPU      4.90s WALL (      61 calls)
                                        0.00s GPU  (      61 calls)
     add_vuspsi   :      0.62s CPU      0.62s WALL (      61 calls)
     vhpsi        :      0.19s CPU      0.19s WALL (      61 calls)

     General routines
     calbec       :      0.80s CPU      0.81s WALL (     138 calls)
     fft          :      0.62s CPU      0.63s WALL (     160 calls)
     ffts         :      0.02s CPU      0.02s WALL (      15 calls)
     fftw         :      5.14s CPU      5.19s WALL (    4954 calls)

     Parallel routines

     Hubbard U routines
     new_ns       :      0.04s CPU      0.04s WALL (      15 calls)
     vhpsi        :      0.19s CPU      0.19s WALL (      61 calls)

     PWSCF        :     14.16s CPU     14.42s WALL


   This run was terminated on:   9:52:15   8Apr2026            

=------------------------------------------------------------------------------=
   JOB DONE.
=------------------------------------------------------------------------------=
