<UPF version="2.0.1">
  <PP_INFO>

 This pseudopotential file has been produced using the code
 ONCVPSP  (Optimized Norm-Conservinng Vanderbilt PSeudopotential)
 scalar-relativistic version 4.0.1 06/20/2107 by D. R. Hamann
 The code is available through a link at URL www.mat-simresearch.com.
 Documentation with the package provides a full discription of the
 input data below.


 While it is not required under the terms of the GNU GPL, it is
 suggested that you cite D. R. Hamann, Phys. Rev. B 88, 085117 (2013)
 in any publication using these pseudopotentials.

    <PP_INPUTFILE>
# ATOM AND REFERENCE CONFIGURATION
# atsym  z   nc   nv     iexc    psfile
  C  6.00    1    2       4      upf
#
#   n    l    f        energy (Ha)
    1    0    2.00
    2    0    2.00
    2    1    2.00
#
# PSEUDOPOTENTIAL AND OPTIMIZATION
# lmax
    1
#
#   l,   rc,      ep,       ncon, nbas, qcut
    0   1.20000  -0.50533    4    7   9.00000
    1   1.25000  -0.19424    4    8   9.40000
#
# LOCAL POTENTIAL
# lloc, lpopt,  rc(5),   dvloc0
    4    5   1.20000      0.00000
#
# VANDERBILT-KLEINMAN-BYLANDER PROJECTORs
# l, nproj, debl
    0    2   2.00000
    1    2   1.50000
#
# MODEL CORE CHARGE
# icmod, fcfact, rcfact
    3   4.00000   1.55000
#
# LOG DERIVATIVE ANALYSIS
# epsh1, epsh2, depsh
  -12.00   12.00    0.02
#
# OUTPUT GRID (using internal log mesh)

# mmax =   2291, rmax =   4.4499E+01
#
# TEST CONFIGURATIONS
# ncnf
    0
# nvcnf
#   n    l    f
    </PP_INPUTFILE>
  </PP_INFO>
  <!--                               -->
  <!-- END OF HUMAN READABLE SECTION -->
  <!--                               -->
    <PP_HEADER
       generated="Generated using ONCVPSP code by D. R. Hamann"
       author="anonymous"
       date="260127"
       comment=""
       element="C "
       pseudo_type="NC"
       relativistic="scalar"
       is_ultrasoft="F"
       is_paw="F"
       is_coulomb="F"
       has_so="F"
       has_wfc="F"
       has_gipaw="T"
       core_correction="T"
       functional="PBE"
       z_valence="    4.00"
       total_psenergy="  -1.07781960784E+01"
       rho_cutoff="   4.44985493181E+01"
       l_max="1"
       l_local="-1"
       mesh_size="  2291"
       number_of_wfc="2"
       number_of_proj="4"/>
 <PP_MESH dx="  5.98207167754747E-03" mesh="2291" xmin=" -9.90348755253613E+00" rmax="  4.44985493181008E+01" zmesh="1.0">
   <PP_R type="real"  size="  2291" columns="8">
  5.000000E-05  5.030000E-05  5.060180E-05  5.090541E-05  5.121084E-05  5.151811E-05  5.182722E-05  5.213818E-05
  5.245101E-05  5.276572E-05  5.308231E-05  5.340080E-05  5.372121E-05  5.404354E-05  5.436780E-05  5.469400E-05
  5.502217E-05  5.535230E-05  5.568441E-05  5.601852E-05  5.635463E-05  5.669276E-05  5.703292E-05  5.737511E-05
  5.771936E-05  5.806568E-05  5.841407E-05  5.876456E-05  5.911715E-05  5.947185E-05  5.982868E-05  6.018765E-05
  6.054878E-05  6.091207E-05  6.127754E-05  6.164521E-05  6.201508E-05  6.238717E-05  6.276149E-05  6.313806E-05
  6.351689E-05  6.389799E-05  6.428138E-05  6.466707E-05  6.505507E-05  6.544540E-05  6.583807E-05  6.623310E-05
  6.663050E-05  6.703028E-05  6.743247E-05  6.783706E-05  6.824408E-05  6.865355E-05  6.906547E-05  6.947986E-05
  6.989674E-05  7.031612E-05  7.073802E-05  7.116245E-05  7.158942E-05  7.201896E-05  7.245107E-05  7.288578E-05
  7.332309E-05  7.376303E-05  7.420561E-05  7.465084E-05  7.509875E-05  7.554934E-05  7.600264E-05  7.645865E-05
  7.691740E-05  7.737891E-05  7.784318E-05  7.831024E-05  7.878010E-05  7.925278E-05  7.972830E-05  8.020667E-05
  8.068791E-05  8.117204E-05  8.165907E-05  8.214902E-05  8.264192E-05  8.313777E-05  8.363660E-05  8.413842E-05
  8.464325E-05  8.515111E-05  8.566201E-05  8.617598E-05  8.669304E-05  8.721320E-05  8.773648E-05  8.826290E-05
  8.879247E-05  8.932523E-05  8.986118E-05  9.040035E-05  9.094275E-05  9.148841E-05  9.203734E-05  9.258956E-05
  9.314510E-05  9.370397E-05  9.426619E-05  9.483179E-05  9.540078E-05  9.597318E-05  9.654902E-05  9.712832E-05
  9.771109E-05  9.829735E-05  9.888714E-05  9.948046E-05  1.000773E-04  1.006778E-04  1.012819E-04  1.018896E-04
  1.025009E-04  1.031159E-04  1.037346E-04  1.043570E-04  1.049832E-04  1.056131E-04  1.062467E-04  1.068842E-04
  1.075255E-04  1.081707E-04  1.088197E-04  1.094726E-04  1.101294E-04  1.107902E-04  1.114550E-04  1.121237E-04
  1.127964E-04  1.134732E-04  1.141541E-04  1.148390E-04  1.155280E-04  1.162212E-04  1.169185E-04  1.176200E-04
  1.183257E-04  1.190357E-04  1.197499E-04  1.204684E-04  1.211912E-04  1.219184E-04  1.226499E-04  1.233858E-04
  1.241261E-04  1.248708E-04  1.256201E-04  1.263738E-04  1.271320E-04  1.278948E-04  1.286622E-04  1.294342E-04
  1.302108E-04  1.309920E-04  1.317780E-04  1.325687E-04  1.333641E-04  1.341643E-04  1.349692E-04  1.357791E-04
  1.365937E-04  1.374133E-04  1.382378E-04  1.390672E-04  1.399016E-04  1.407410E-04  1.415855E-04  1.424350E-04
  1.432896E-04  1.441493E-04  1.450142E-04  1.458843E-04  1.467596E-04  1.476402E-04  1.485260E-04  1.494172E-04
  1.503137E-04  1.512155E-04  1.521228E-04  1.530356E-04  1.539538E-04  1.548775E-04  1.558068E-04  1.567416E-04
  1.576821E-04  1.586282E-04  1.595799E-04  1.605374E-04  1.615006E-04  1.624696E-04  1.634445E-04  1.644251E-04
  1.654117E-04  1.664041E-04  1.674026E-04  1.684070E-04  1.694174E-04  1.704339E-04  1.714565E-04  1.724853E-04
  1.735202E-04  1.745613E-04  1.756087E-04  1.766623E-04  1.777223E-04  1.787886E-04  1.798614E-04  1.809405E-04
  1.820262E-04  1.831183E-04  1.842170E-04  1.853223E-04  1.864343E-04  1.875529E-04  1.886782E-04  1.898103E-04
  1.909491E-04  1.920948E-04  1.932474E-04  1.944069E-04  1.955733E-04  1.967468E-04  1.979272E-04  1.991148E-04
  2.003095E-04  2.015113E-04  2.027204E-04  2.039367E-04  2.051604E-04  2.063913E-04  2.076297E-04  2.088754E-04
  2.101287E-04  2.113895E-04  2.126578E-04  2.139338E-04  2.152174E-04  2.165087E-04  2.178077E-04  2.191146E-04
  2.204292E-04  2.217518E-04  2.230823E-04  2.244208E-04  2.257674E-04  2.271220E-04  2.284847E-04  2.298556E-04
  2.312347E-04  2.326221E-04  2.340179E-04  2.354220E-04  2.368345E-04  2.382555E-04  2.396851E-04  2.411232E-04
  2.425699E-04  2.440253E-04  2.454895E-04  2.469624E-04  2.484442E-04  2.499349E-04  2.514345E-04  2.529431E-04
  2.544607E-04  2.559875E-04  2.575234E-04  2.590686E-04  2.606230E-04  2.621867E-04  2.637598E-04  2.653424E-04
  2.669344E-04  2.685360E-04  2.701473E-04  2.717681E-04  2.733988E-04  2.750391E-04  2.766894E-04  2.783495E-04
  2.800196E-04  2.816997E-04  2.833899E-04  2.850903E-04  2.868008E-04  2.885216E-04  2.902527E-04  2.919943E-04
  2.937462E-04  2.955087E-04  2.972818E-04  2.990654E-04  3.008598E-04  3.026650E-04  3.044810E-04  3.063079E-04
  3.081457E-04  3.099946E-04  3.118546E-04  3.137257E-04  3.156080E-04  3.175017E-04  3.194067E-04  3.213231E-04
  3.232511E-04  3.251906E-04  3.271417E-04  3.291046E-04  3.310792E-04  3.330657E-04  3.350641E-04  3.370745E-04
  3.390969E-04  3.411315E-04  3.431783E-04  3.452374E-04  3.473088E-04  3.493926E-04  3.514890E-04  3.535979E-04
  3.557195E-04  3.578538E-04  3.600009E-04  3.621610E-04  3.643339E-04  3.665199E-04  3.687190E-04  3.709314E-04
  3.731569E-04  3.753959E-04  3.776483E-04  3.799141E-04  3.821936E-04  3.844868E-04  3.867937E-04  3.891145E-04
  3.914492E-04  3.937979E-04  3.961606E-04  3.985376E-04  4.009288E-04  4.033344E-04  4.057544E-04  4.081889E-04
  4.106381E-04  4.131019E-04  4.155805E-04  4.180740E-04  4.205824E-04  4.231059E-04  4.256446E-04  4.281984E-04
  4.307676E-04  4.333522E-04  4.359524E-04  4.385681E-04  4.411995E-04  4.438467E-04  4.465098E-04  4.491888E-04
  4.518839E-04  4.545952E-04  4.573228E-04  4.600668E-04  4.628272E-04  4.656041E-04  4.683977E-04  4.712081E-04
  4.740354E-04  4.768796E-04  4.797409E-04  4.826193E-04  4.855150E-04  4.884281E-04  4.913587E-04  4.943068E-04
  4.972727E-04  5.002563E-04  5.032579E-04  5.062774E-04  5.093151E-04  5.123710E-04  5.154452E-04  5.185379E-04
  5.216491E-04  5.247790E-04  5.279276E-04  5.310952E-04  5.342818E-04  5.374875E-04  5.407124E-04  5.439567E-04
  5.472204E-04  5.505037E-04  5.538068E-04  5.571296E-04  5.604724E-04  5.638352E-04  5.672182E-04  5.706215E-04
  5.740453E-04  5.774895E-04  5.809545E-04  5.844402E-04  5.879468E-04  5.914745E-04  5.950234E-04  5.985935E-04
  6.021851E-04  6.057982E-04  6.094330E-04  6.130896E-04  6.167681E-04  6.204687E-04  6.241915E-04  6.279367E-04
  6.317043E-04  6.354945E-04  6.393075E-04  6.431433E-04  6.470022E-04  6.508842E-04  6.547895E-04  6.587182E-04
  6.626706E-04  6.666466E-04  6.706465E-04  6.746703E-04  6.787184E-04  6.827907E-04  6.868874E-04  6.910087E-04
  6.951548E-04  6.993257E-04  7.035217E-04  7.077428E-04  7.119893E-04  7.162612E-04  7.205588E-04  7.248821E-04
  7.292314E-04  7.336068E-04  7.380084E-04  7.424365E-04  7.468911E-04  7.513725E-04  7.558807E-04  7.604160E-04
  7.649785E-04  7.695683E-04  7.741858E-04  7.788309E-04  7.835039E-04  7.882049E-04  7.929341E-04  7.976917E-04
  8.024779E-04  8.072927E-04  8.121365E-04  8.170093E-04  8.219114E-04  8.268428E-04  8.318039E-04  8.367947E-04
  8.418155E-04  8.468664E-04  8.519476E-04  8.570592E-04  8.622016E-04  8.673748E-04  8.725791E-04  8.778145E-04
  8.830814E-04  8.883799E-04  8.937102E-04  8.990725E-04  9.044669E-04  9.098937E-04  9.153531E-04  9.208452E-04
  9.263702E-04  9.319285E-04  9.375200E-04  9.431452E-04  9.488040E-04  9.544968E-04  9.602238E-04  9.659852E-04
  9.717811E-04  9.776118E-04  9.834774E-04  9.893783E-04  9.953146E-04  1.001286E-03  1.007294E-03  1.013338E-03
  1.019418E-03  1.025534E-03  1.031688E-03  1.037878E-03  1.044105E-03  1.050370E-03  1.056672E-03  1.063012E-03
  1.069390E-03  1.075806E-03  1.082261E-03  1.088755E-03  1.095287E-03  1.101859E-03  1.108470E-03  1.115121E-03
  1.121812E-03  1.128543E-03  1.135314E-03  1.142126E-03  1.148978E-03  1.155872E-03  1.162808E-03  1.169784E-03
  1.176803E-03  1.183864E-03  1.190967E-03  1.198113E-03  1.205302E-03  1.212533E-03  1.219809E-03  1.227128E-03
  1.234490E-03  1.241897E-03  1.249349E-03  1.256845E-03  1.264386E-03  1.271972E-03  1.279604E-03  1.287282E-03
  1.295005E-03  1.302775E-03  1.310592E-03  1.318455E-03  1.326366E-03  1.334324E-03  1.342330E-03  1.350384E-03
  1.358487E-03  1.366638E-03  1.374837E-03  1.383086E-03  1.391385E-03  1.399733E-03  1.408132E-03  1.416580E-03
  1.425080E-03  1.433630E-03  1.442232E-03  1.450886E-03  1.459591E-03  1.468348E-03  1.477158E-03  1.486021E-03
  1.494938E-03  1.503907E-03  1.512931E-03  1.522008E-03  1.531140E-03  1.540327E-03  1.549569E-03  1.558866E-03
  1.568220E-03  1.577629E-03  1.587095E-03  1.596617E-03  1.606197E-03  1.615834E-03  1.625529E-03  1.635282E-03
  1.645094E-03  1.654965E-03  1.664894E-03  1.674884E-03  1.684933E-03  1.695043E-03  1.705213E-03  1.715444E-03
  1.725737E-03  1.736091E-03  1.746508E-03  1.756987E-03  1.767529E-03  1.778134E-03  1.788803E-03  1.799536E-03
  1.810333E-03  1.821195E-03  1.832122E-03  1.843115E-03  1.854173E-03  1.865298E-03  1.876490E-03  1.887749E-03
  1.899076E-03  1.910470E-03  1.921933E-03  1.933465E-03  1.945065E-03  1.956736E-03  1.968476E-03  1.980287E-03
  1.992169E-03  2.004122E-03  2.016147E-03  2.028243E-03  2.040413E-03  2.052655E-03  2.064971E-03  2.077361E-03
  2.089825E-03  2.102364E-03  2.114978E-03  2.127668E-03  2.140434E-03  2.153277E-03  2.166197E-03  2.179194E-03
  2.192269E-03  2.205422E-03  2.218655E-03  2.231967E-03  2.245359E-03  2.258831E-03  2.272384E-03  2.286018E-03
  2.299734E-03  2.313533E-03  2.327414E-03  2.341378E-03  2.355427E-03  2.369559E-03  2.383777E-03  2.398079E-03
  2.412468E-03  2.426943E-03  2.441504E-03  2.456153E-03  2.470890E-03  2.485715E-03  2.500630E-03  2.515634E-03
  2.530727E-03  2.545912E-03  2.561187E-03  2.576554E-03  2.592014E-03  2.607566E-03  2.623211E-03  2.638950E-03
  2.654784E-03  2.670713E-03  2.686737E-03  2.702857E-03  2.719075E-03  2.735389E-03  2.751801E-03  2.768312E-03
  2.784922E-03  2.801632E-03  2.818441E-03  2.835352E-03  2.852364E-03  2.869478E-03  2.886695E-03  2.904015E-03
  2.921439E-03  2.938968E-03  2.956602E-03  2.974342E-03  2.992188E-03  3.010141E-03  3.028202E-03  3.046371E-03
  3.064649E-03  3.083037E-03  3.101535E-03  3.120144E-03  3.138865E-03  3.157698E-03  3.176645E-03  3.195704E-03
  3.214879E-03  3.234168E-03  3.253573E-03  3.273094E-03  3.292733E-03  3.312489E-03  3.332364E-03  3.352358E-03
  3.372473E-03  3.392707E-03  3.413064E-03  3.433542E-03  3.454143E-03  3.474868E-03  3.495717E-03  3.516692E-03
  3.537792E-03  3.559019E-03  3.580373E-03  3.601855E-03  3.623466E-03  3.645207E-03  3.667078E-03  3.689081E-03
  3.711215E-03  3.733482E-03  3.755883E-03  3.778419E-03  3.801089E-03  3.823896E-03  3.846839E-03  3.869920E-03
  3.893140E-03  3.916498E-03  3.939997E-03  3.963637E-03  3.987419E-03  4.011344E-03  4.035412E-03  4.059624E-03
  4.083982E-03  4.108486E-03  4.133137E-03  4.157936E-03  4.182883E-03  4.207980E-03  4.233228E-03  4.258628E-03
  4.284180E-03  4.309885E-03  4.335744E-03  4.361758E-03  4.387929E-03  4.414256E-03  4.440742E-03  4.467386E-03
  4.494191E-03  4.521156E-03  4.548283E-03  4.575573E-03  4.603026E-03  4.630644E-03  4.658428E-03  4.686379E-03
  4.714497E-03  4.742784E-03  4.771241E-03  4.799868E-03  4.828667E-03  4.857639E-03  4.886785E-03  4.916106E-03
  4.945602E-03  4.975276E-03  5.005128E-03  5.035158E-03  5.065369E-03  5.095762E-03  5.126336E-03  5.157094E-03
  5.188037E-03  5.219165E-03  5.250480E-03  5.281983E-03  5.313675E-03  5.345557E-03  5.377630E-03  5.409896E-03
  5.442355E-03  5.475009E-03  5.507859E-03  5.540907E-03  5.574152E-03  5.607597E-03  5.641243E-03  5.675090E-03
  5.709141E-03  5.743395E-03  5.777856E-03  5.812523E-03  5.847398E-03  5.882482E-03  5.917777E-03  5.953284E-03
  5.989004E-03  6.024938E-03  6.061087E-03  6.097454E-03  6.134039E-03  6.170843E-03  6.207868E-03  6.245115E-03
  6.282586E-03  6.320281E-03  6.358203E-03  6.396352E-03  6.434730E-03  6.473339E-03  6.512179E-03  6.551252E-03
  6.590559E-03  6.630103E-03  6.669883E-03  6.709903E-03  6.750162E-03  6.790663E-03  6.831407E-03  6.872395E-03
  6.913630E-03  6.955112E-03  6.996842E-03  7.038823E-03  7.081056E-03  7.123543E-03  7.166284E-03  7.209281E-03
  7.252537E-03  7.296052E-03  7.339829E-03  7.383868E-03  7.428171E-03  7.472740E-03  7.517576E-03  7.562682E-03
  7.608058E-03  7.653706E-03  7.699628E-03  7.745826E-03  7.792301E-03  7.839055E-03  7.886089E-03  7.933406E-03
  7.981006E-03  8.028892E-03  8.077066E-03  8.125528E-03  8.174281E-03  8.223327E-03  8.272667E-03  8.322303E-03
  8.372237E-03  8.422470E-03  8.473005E-03  8.523843E-03  8.574986E-03  8.626436E-03  8.678195E-03  8.730264E-03
  8.782645E-03  8.835341E-03  8.888353E-03  8.941683E-03  8.995333E-03  9.049305E-03  9.103601E-03  9.158223E-03
  9.213172E-03  9.268451E-03  9.324062E-03  9.380006E-03  9.436286E-03  9.492904E-03  9.549862E-03  9.607161E-03
  9.664804E-03  9.722793E-03  9.781129E-03  9.839816E-03  9.898855E-03  9.958248E-03  1.001800E-02  1.007811E-02
  1.013857E-02  1.019941E-02  1.026060E-02  1.032217E-02  1.038410E-02  1.044640E-02  1.050908E-02  1.057214E-02
  1.063557E-02  1.069938E-02  1.076358E-02  1.082816E-02  1.089313E-02  1.095849E-02  1.102424E-02  1.109038E-02
  1.115693E-02  1.122387E-02  1.129121E-02  1.135896E-02  1.142711E-02  1.149568E-02  1.156465E-02  1.163404E-02
  1.170384E-02  1.177406E-02  1.184471E-02  1.191578E-02  1.198727E-02  1.205920E-02  1.213155E-02  1.220434E-02
  1.227757E-02  1.235123E-02  1.242534E-02  1.249989E-02  1.257489E-02  1.265034E-02  1.272624E-02  1.280260E-02
  1.287941E-02  1.295669E-02  1.303443E-02  1.311264E-02  1.319131E-02  1.327046E-02  1.335008E-02  1.343018E-02
  1.351077E-02  1.359183E-02  1.367338E-02  1.375542E-02  1.383795E-02  1.392098E-02  1.400451E-02  1.408853E-02
  1.417307E-02  1.425810E-02  1.434365E-02  1.442971E-02  1.451629E-02  1.460339E-02  1.469101E-02  1.477916E-02
  1.486783E-02  1.495704E-02  1.504678E-02  1.513706E-02  1.522788E-02  1.531925E-02  1.541117E-02  1.550363E-02
  1.559666E-02  1.569024E-02  1.578438E-02  1.587908E-02  1.597436E-02  1.607020E-02  1.616663E-02  1.626363E-02
  1.636121E-02  1.645937E-02  1.655813E-02  1.665748E-02  1.675742E-02  1.685797E-02  1.695912E-02  1.706087E-02
  1.716324E-02  1.726622E-02  1.736981E-02  1.747403E-02  1.757888E-02  1.768435E-02  1.779046E-02  1.789720E-02
  1.800458E-02  1.811261E-02  1.822128E-02  1.833061E-02  1.844060E-02  1.855124E-02  1.866255E-02  1.877452E-02
  1.888717E-02  1.900049E-02  1.911450E-02  1.922918E-02  1.934456E-02  1.946062E-02  1.957739E-02  1.969485E-02
  1.981302E-02  1.993190E-02  2.005149E-02  2.017180E-02  2.029283E-02  2.041459E-02  2.053708E-02  2.066030E-02
  2.078426E-02  2.090897E-02  2.103442E-02  2.116063E-02  2.128759E-02  2.141532E-02  2.154381E-02  2.167307E-02
  2.180311E-02  2.193393E-02  2.206553E-02  2.219792E-02  2.233111E-02  2.246510E-02  2.259989E-02  2.273549E-02
  2.287190E-02  2.300913E-02  2.314719E-02  2.328607E-02  2.342579E-02  2.356634E-02  2.370774E-02  2.384999E-02
  2.399309E-02  2.413704E-02  2.428187E-02  2.442756E-02  2.457412E-02  2.472157E-02  2.486990E-02  2.501912E-02
  2.516923E-02  2.532025E-02  2.547217E-02  2.562500E-02  2.577875E-02  2.593342E-02  2.608902E-02  2.624556E-02
  2.640303E-02  2.656145E-02  2.672082E-02  2.688114E-02  2.704243E-02  2.720469E-02  2.736791E-02  2.753212E-02
  2.769731E-02  2.786350E-02  2.803068E-02  2.819886E-02  2.836806E-02  2.853826E-02  2.870949E-02  2.888175E-02
  2.905504E-02  2.922937E-02  2.940475E-02  2.958118E-02  2.975866E-02  2.993721E-02  3.011684E-02  3.029754E-02
  3.047932E-02  3.066220E-02  3.084617E-02  3.103125E-02  3.121744E-02  3.140474E-02  3.159317E-02  3.178273E-02
  3.197343E-02  3.216527E-02  3.235826E-02  3.255241E-02  3.274772E-02  3.294421E-02  3.314187E-02  3.334073E-02
  3.354077E-02  3.374201E-02  3.394447E-02  3.414813E-02  3.435302E-02  3.455914E-02  3.476650E-02  3.497509E-02
  3.518494E-02  3.539605E-02  3.560843E-02  3.582208E-02  3.603701E-02  3.625324E-02  3.647076E-02  3.668958E-02
  3.690972E-02  3.713118E-02  3.735396E-02  3.757809E-02  3.780355E-02  3.803038E-02  3.825856E-02  3.848811E-02
  3.871904E-02  3.895135E-02  3.918506E-02  3.942017E-02  3.965669E-02  3.989463E-02  4.013400E-02  4.037480E-02
  4.061705E-02  4.086076E-02  4.110592E-02  4.135256E-02  4.160067E-02  4.185027E-02  4.210138E-02  4.235398E-02
  4.260811E-02  4.286376E-02  4.312094E-02  4.337967E-02  4.363994E-02  4.390178E-02  4.416519E-02  4.443018E-02
  4.469677E-02  4.496495E-02  4.523474E-02  4.550614E-02  4.577918E-02  4.605386E-02  4.633018E-02  4.660816E-02
  4.688781E-02  4.716914E-02  4.745215E-02  4.773686E-02  4.802329E-02  4.831143E-02  4.860129E-02  4.889290E-02
  4.918626E-02  4.948138E-02  4.977826E-02  5.007693E-02  5.037740E-02  5.067966E-02  5.098374E-02  5.128964E-02
  5.159738E-02  5.190696E-02  5.221840E-02  5.253172E-02  5.284691E-02  5.316399E-02  5.348297E-02  5.380387E-02
  5.412669E-02  5.445145E-02  5.477816E-02  5.510683E-02  5.543747E-02  5.577010E-02  5.610472E-02  5.644134E-02
  5.677999E-02  5.712067E-02  5.746340E-02  5.780818E-02  5.815503E-02  5.850396E-02  5.885498E-02  5.920811E-02
  5.956336E-02  5.992074E-02  6.028026E-02  6.064194E-02  6.100580E-02  6.137183E-02  6.174006E-02  6.211050E-02
  6.248317E-02  6.285806E-02  6.323521E-02  6.361462E-02  6.399631E-02  6.438029E-02  6.476657E-02  6.515517E-02
  6.554610E-02  6.593938E-02  6.633501E-02  6.673302E-02  6.713342E-02  6.753622E-02  6.794144E-02  6.834909E-02
  6.875918E-02  6.917174E-02  6.958677E-02  7.000429E-02  7.042432E-02  7.084686E-02  7.127194E-02  7.169957E-02
  7.212977E-02  7.256255E-02  7.299793E-02  7.343591E-02  7.387653E-02  7.431979E-02  7.476571E-02  7.521430E-02
  7.566559E-02  7.611958E-02  7.657630E-02  7.703576E-02  7.749797E-02  7.796296E-02  7.843074E-02  7.890132E-02
  7.937473E-02  7.985098E-02  8.033008E-02  8.081206E-02  8.129694E-02  8.178472E-02  8.227543E-02  8.276908E-02
  8.326569E-02  8.376529E-02  8.426788E-02  8.477349E-02  8.528213E-02  8.579382E-02  8.630858E-02  8.682643E-02
  8.734739E-02  8.787148E-02  8.839871E-02  8.892910E-02  8.946267E-02  8.999945E-02  9.053944E-02  9.108268E-02
  9.162918E-02  9.217895E-02  9.273203E-02  9.328842E-02  9.384815E-02  9.441124E-02  9.497771E-02  9.554757E-02
  9.612086E-02  9.669758E-02  9.727777E-02  9.786143E-02  9.844860E-02  9.903929E-02  9.963353E-02  1.002313E-01
  1.008327E-01  1.014377E-01  1.020463E-01  1.026586E-01  1.032746E-01  1.038942E-01  1.045176E-01  1.051447E-01
  1.057756E-01  1.064102E-01  1.070487E-01  1.076910E-01  1.083371E-01  1.089871E-01  1.096411E-01  1.102989E-01
  1.109607E-01  1.116265E-01  1.122962E-01  1.129700E-01  1.136478E-01  1.143297E-01  1.150157E-01  1.157058E-01
  1.164000E-01  1.170984E-01  1.178010E-01  1.185078E-01  1.192189E-01  1.199342E-01  1.206538E-01  1.213777E-01
  1.221060E-01  1.228386E-01  1.235756E-01  1.243171E-01  1.250630E-01  1.258134E-01  1.265682E-01  1.273277E-01
  1.280916E-01  1.288602E-01  1.296333E-01  1.304111E-01  1.311936E-01  1.319808E-01  1.327726E-01  1.335693E-01
  1.343707E-01  1.351769E-01  1.359880E-01  1.368039E-01  1.376247E-01  1.384505E-01  1.392812E-01  1.401169E-01
  1.409576E-01  1.418033E-01  1.426541E-01  1.435101E-01  1.443711E-01  1.452373E-01  1.461088E-01  1.469854E-01
  1.478673E-01  1.487545E-01  1.496471E-01  1.505449E-01  1.514482E-01  1.523569E-01  1.532710E-01  1.541907E-01
  1.551158E-01  1.560465E-01  1.569828E-01  1.579247E-01  1.588722E-01  1.598255E-01  1.607844E-01  1.617491E-01
  1.627196E-01  1.636959E-01  1.646781E-01  1.656662E-01  1.666602E-01  1.676601E-01  1.686661E-01  1.696781E-01
  1.706962E-01  1.717203E-01  1.727507E-01  1.737872E-01  1.748299E-01  1.758789E-01  1.769342E-01  1.779958E-01
  1.790637E-01  1.801381E-01  1.812189E-01  1.823063E-01  1.834001E-01  1.845005E-01  1.856075E-01  1.867211E-01
  1.878415E-01  1.889685E-01  1.901023E-01  1.912429E-01  1.923904E-01  1.935447E-01  1.947060E-01  1.958742E-01
  1.970495E-01  1.982318E-01  1.994212E-01  2.006177E-01  2.018214E-01  2.030323E-01  2.042505E-01  2.054760E-01
  2.067089E-01  2.079491E-01  2.091968E-01  2.104520E-01  2.117147E-01  2.129850E-01  2.142629E-01  2.155485E-01
  2.168418E-01  2.181429E-01  2.194517E-01  2.207684E-01  2.220930E-01  2.234256E-01  2.247661E-01  2.261147E-01
  2.274714E-01  2.288363E-01  2.302093E-01  2.315905E-01  2.329801E-01  2.343780E-01  2.357842E-01  2.371989E-01
  2.386221E-01  2.400539E-01  2.414942E-01  2.429431E-01  2.444008E-01  2.458672E-01  2.473424E-01  2.488265E-01
  2.503194E-01  2.518213E-01  2.533323E-01  2.548523E-01  2.563814E-01  2.579197E-01  2.594672E-01  2.610240E-01
  2.625901E-01  2.641657E-01  2.657507E-01  2.673452E-01  2.689492E-01  2.705629E-01  2.721863E-01  2.738194E-01
  2.754623E-01  2.771151E-01  2.787778E-01  2.804505E-01  2.821332E-01  2.838260E-01  2.855289E-01  2.872421E-01
  2.889656E-01  2.906994E-01  2.924436E-01  2.941982E-01  2.959634E-01  2.977392E-01  2.995256E-01  3.013228E-01
  3.031307E-01  3.049495E-01  3.067792E-01  3.086199E-01  3.104716E-01  3.123344E-01  3.142084E-01  3.160937E-01
  3.179902E-01  3.198982E-01  3.218176E-01  3.237485E-01  3.256910E-01  3.276451E-01  3.296110E-01  3.315886E-01
  3.335782E-01  3.355796E-01  3.375931E-01  3.396187E-01  3.416564E-01  3.437063E-01  3.457686E-01  3.478432E-01
  3.499302E-01  3.520298E-01  3.541420E-01  3.562668E-01  3.584044E-01  3.605549E-01  3.627182E-01  3.648945E-01
  3.670839E-01  3.692864E-01  3.715021E-01  3.737311E-01  3.759735E-01  3.782293E-01  3.804987E-01  3.827817E-01
  3.850784E-01  3.873889E-01  3.897132E-01  3.920515E-01  3.944038E-01  3.967702E-01  3.991508E-01  4.015457E-01
  4.039550E-01  4.063787E-01  4.088170E-01  4.112699E-01  4.137375E-01  4.162200E-01  4.187173E-01  4.212296E-01
  4.237570E-01  4.262995E-01  4.288573E-01  4.314305E-01  4.340190E-01  4.366231E-01  4.392429E-01  4.418783E-01
  4.445296E-01  4.471968E-01  4.498800E-01  4.525793E-01  4.552947E-01  4.580265E-01  4.607747E-01  4.635393E-01
  4.663205E-01  4.691185E-01  4.719332E-01  4.747648E-01  4.776134E-01  4.804790E-01  4.833619E-01  4.862621E-01
  4.891797E-01  4.921147E-01  4.950674E-01  4.980378E-01  5.010261E-01  5.040322E-01  5.070564E-01  5.100987E-01
  5.131593E-01  5.162383E-01  5.193357E-01  5.224517E-01  5.255864E-01  5.287400E-01  5.319124E-01  5.351039E-01
  5.383145E-01  5.415444E-01  5.447937E-01  5.480624E-01  5.513508E-01  5.546589E-01  5.579869E-01  5.613348E-01
  5.647028E-01  5.680910E-01  5.714995E-01  5.749285E-01  5.783781E-01  5.818484E-01  5.853395E-01  5.888515E-01
  5.923846E-01  5.959389E-01  5.995146E-01  6.031116E-01  6.067303E-01  6.103707E-01  6.140329E-01  6.177171E-01
  6.214234E-01  6.251520E-01  6.289029E-01  6.326763E-01  6.364724E-01  6.402912E-01  6.441329E-01  6.479977E-01
  6.518857E-01  6.557970E-01  6.597318E-01  6.636902E-01  6.676723E-01  6.716784E-01  6.757084E-01  6.797627E-01
  6.838413E-01  6.879443E-01  6.920720E-01  6.962244E-01  7.004018E-01  7.046042E-01  7.088318E-01  7.130848E-01
  7.173633E-01  7.216675E-01  7.259975E-01  7.303535E-01  7.347356E-01  7.391440E-01  7.435789E-01  7.480403E-01
  7.525286E-01  7.570438E-01  7.615860E-01  7.661555E-01  7.707525E-01  7.753770E-01  7.800292E-01  7.847094E-01
  7.894177E-01  7.941542E-01  7.989191E-01  8.037126E-01  8.085349E-01  8.133861E-01  8.182664E-01  8.231760E-01
  8.281151E-01  8.330838E-01  8.380823E-01  8.431108E-01  8.481694E-01  8.532584E-01  8.583780E-01  8.635283E-01
  8.687094E-01  8.739217E-01  8.791652E-01  8.844402E-01  8.897469E-01  8.950853E-01  9.004558E-01  9.058586E-01
  9.112937E-01  9.167615E-01  9.222621E-01  9.277956E-01  9.333624E-01  9.389626E-01  9.445964E-01  9.502639E-01
  9.559655E-01  9.617013E-01  9.674715E-01  9.732764E-01  9.791160E-01  9.849907E-01  9.909007E-01  9.968461E-01
  1.002827E+00  1.008844E+00  1.014897E+00  1.020987E+00  1.027112E+00  1.033275E+00  1.039475E+00  1.045712E+00
  1.051986E+00  1.058298E+00  1.064648E+00  1.071035E+00  1.077462E+00  1.083926E+00  1.090430E+00  1.096973E+00
  1.103554E+00  1.110176E+00  1.116837E+00  1.123538E+00  1.130279E+00  1.137061E+00  1.143883E+00  1.150746E+00
  1.157651E+00  1.164597E+00  1.171584E+00  1.178614E+00  1.185686E+00  1.192800E+00  1.199956E+00  1.207156E+00
  1.214399E+00  1.221686E+00  1.229016E+00  1.236390E+00  1.243808E+00  1.251271E+00  1.258779E+00  1.266331E+00
  1.273929E+00  1.281573E+00  1.289262E+00  1.296998E+00  1.304780E+00  1.312608E+00  1.320484E+00  1.328407E+00
  1.336377E+00  1.344396E+00  1.352462E+00  1.360577E+00  1.368740E+00  1.376953E+00  1.385215E+00  1.393526E+00
  1.401887E+00  1.410298E+00  1.418760E+00  1.427273E+00  1.435836E+00  1.444451E+00  1.453118E+00  1.461837E+00
  1.470608E+00  1.479431E+00  1.488308E+00  1.497238E+00  1.506221E+00  1.515259E+00  1.524350E+00  1.533496E+00
  1.542697E+00  1.551953E+00  1.561265E+00  1.570633E+00  1.580056E+00  1.589537E+00  1.599074E+00  1.608668E+00
  1.618320E+00  1.628030E+00  1.637799E+00  1.647625E+00  1.657511E+00  1.667456E+00  1.677461E+00  1.687526E+00
  1.697651E+00  1.707837E+00  1.718084E+00  1.728392E+00  1.738763E+00  1.749195E+00  1.759690E+00  1.770249E+00
  1.780870E+00  1.791555E+00  1.802305E+00  1.813118E+00  1.823997E+00  1.834941E+00  1.845951E+00  1.857026E+00
  1.868169E+00  1.879378E+00  1.890654E+00  1.901998E+00  1.913410E+00  1.924890E+00  1.936440E+00  1.948058E+00
  1.959747E+00  1.971505E+00  1.983334E+00  1.995234E+00  2.007206E+00  2.019249E+00  2.031364E+00  2.043552E+00
  2.055814E+00  2.068149E+00  2.080558E+00  2.093041E+00  2.105599E+00  2.118233E+00  2.130942E+00  2.143728E+00
  2.156590E+00  2.169530E+00  2.182547E+00  2.195642E+00  2.208816E+00  2.222069E+00  2.235401E+00  2.248814E+00
  2.262307E+00  2.275880E+00  2.289536E+00  2.303273E+00  2.317093E+00  2.330995E+00  2.344981E+00  2.359051E+00
  2.373205E+00  2.387444E+00  2.401769E+00  2.416180E+00  2.430677E+00  2.445261E+00  2.459932E+00  2.474692E+00
  2.489540E+00  2.504477E+00  2.519504E+00  2.534621E+00  2.549829E+00  2.565128E+00  2.580519E+00  2.596002E+00
  2.611578E+00  2.627247E+00  2.643011E+00  2.658869E+00  2.674822E+00  2.690871E+00  2.707016E+00  2.723258E+00
  2.739598E+00  2.756036E+00  2.772572E+00  2.789207E+00  2.805942E+00  2.822778E+00  2.839715E+00  2.856753E+00
  2.873894E+00  2.891137E+00  2.908484E+00  2.925935E+00  2.943490E+00  2.961151E+00  2.978918E+00  2.996792E+00
  3.014772E+00  3.032861E+00  3.051058E+00  3.069365E+00  3.087781E+00  3.106307E+00  3.124945E+00  3.143695E+00
  3.162557E+00  3.181532E+00  3.200622E+00  3.219825E+00  3.239144E+00  3.258579E+00  3.278131E+00  3.297799E+00
  3.317586E+00  3.337492E+00  3.357517E+00  3.377662E+00  3.397928E+00  3.418315E+00  3.438825E+00  3.459458E+00
  3.480215E+00  3.501096E+00  3.522103E+00  3.543235E+00  3.564495E+00  3.585882E+00  3.607397E+00  3.629041E+00
  3.650816E+00  3.672721E+00  3.694757E+00  3.716925E+00  3.739227E+00  3.761662E+00  3.784232E+00  3.806938E+00
  3.829779E+00  3.852758E+00  3.875875E+00  3.899130E+00  3.922525E+00  3.946060E+00  3.969736E+00  3.993555E+00
  4.017516E+00  4.041621E+00  4.065871E+00  4.090266E+00  4.114808E+00  4.139496E+00  4.164333E+00  4.189319E+00
  4.214455E+00  4.239742E+00  4.265180E+00  4.290772E+00  4.316516E+00  4.342415E+00  4.368470E+00  4.394681E+00
  4.421049E+00  4.447575E+00  4.474260E+00  4.501106E+00  4.528113E+00  4.555281E+00  4.582613E+00  4.610109E+00
  4.637769E+00  4.665596E+00  4.693589E+00  4.721751E+00  4.750082E+00  4.778582E+00  4.807254E+00  4.836097E+00
  4.865114E+00  4.894304E+00  4.923670E+00  4.953212E+00  4.982931E+00  5.012829E+00  5.042906E+00  5.073163E+00
  5.103602E+00  5.134224E+00  5.165029E+00  5.196020E+00  5.227196E+00  5.258559E+00  5.290110E+00  5.321851E+00
  5.353782E+00  5.385905E+00  5.418220E+00  5.450729E+00  5.483434E+00  5.516334E+00  5.549432E+00  5.582729E+00
  5.616225E+00  5.649923E+00  5.683822E+00  5.717925E+00  5.752233E+00  5.786746E+00  5.821467E+00  5.856395E+00