<UPF version="2.0.1">
  <PP_INFO>

 This pseudopotential file has been produced using the code
 ONCVPSP  (Optimized Norm-Conservinng Vanderbilt PSeudopotential)
 scalar-relativistic version 4.0.1 06/20/2107 by D. R. Hamann
 The code is available through a link at URL www.mat-simresearch.com.
 Documentation with the package provides a full discription of the
 input data below.


 While it is not required under the terms of the GNU GPL, it is
 suggested that you cite D. R. Hamann, Phys. Rev. B 88, 085117 (2013)
 in any publication using these pseudopotentials.

    <PP_INPUTFILE>
# ATOM AND REFERENCE CONFIGURATION
# atsym  z   nc   nv     iexc    psfile
  Cl 17.00    3    2 -116133      upf
#
#   n    l    f        energy (Ha)
    1    0    2.00
    2    0    2.00
    2    1    6.00
    3    0    2.00
    3    1    5.00
#
# PSEUDOPOTENTIAL AND OPTIMIZATION
# lmax
    2
#
#   l,   rc,      ep,       ncon, nbas, qcut
    0   1.90000  -0.76042    4    8   6.50000
    1   1.86729  -0.31587    4    8   7.50000
    2   1.89883   0.10000    4    8   6.80000
#
# LOCAL POTENTIAL
# lloc, lpopt,  rc(5),   dvloc0
    4    5   1.86706      0.00000
#
# VANDERBILT-KLEINMAN-BYLANDER PROJECTORs
# l, nproj, debl
    0    2   2.00000
    1    2   2.00000
    2    2   1.50000
#
# MODEL CORE CHARGE
# icmod, fcfact, rcfact
    3   8.00000   1.23000
#
# LOG DERIVATIVE ANALYSIS
# epsh1, epsh2, depsh
  -15.00   12.00    0.02
#
# OUTPUT GRID (using internal log mesh)

# mmax =   2380, rmax =   4.4578E+01
#
# TEST CONFIGURATIONS
# ncnf
    0
# nvcnf
#   n    l    f
    </PP_INPUTFILE>
  </PP_INFO>
  <!--                               -->
  <!-- END OF HUMAN READABLE SECTION -->
  <!--                               -->
    <PP_HEADER
       generated="Generated using ONCVPSP code by D. R. Hamann"
       author="anonymous"
       date="260127"
       comment=""
       element="Cl"
       pseudo_type="NC"
       relativistic="scalar"
       is_ultrasoft="F"
       is_paw="F"
       is_coulomb="F"
       has_so="F"
       has_wfc="F"
       has_gipaw="T"
       core_correction="T"
       functional="PBESOL"
       z_valence="    7.00"
       total_psenergy="  -2.99553828577E+01"
       rho_cutoff="   4.45776546780E+01"
       l_max="2"
       l_local="-1"
       mesh_size="  2380"
       number_of_wfc="2"
       number_of_proj="6"/>
 <PP_MESH dx="  5.98207167754747E-03" mesh="2380" xmin=" -1.04341158035983E+01" rmax="  4.45776546780000E+01" zmesh="1.0">
   <PP_R type="real"  size="  2380" columns="8">
  2.941176E-05  2.958824E-05  2.976576E-05  2.994436E-05  3.012403E-05  3.030477E-05  3.048660E-05  3.066952E-05
  3.085353E-05  3.103866E-05  3.122489E-05  3.141224E-05  3.160071E-05  3.179032E-05  3.198106E-05  3.217294E-05
  3.236598E-05  3.256018E-05  3.275554E-05  3.295207E-05  3.314978E-05  3.334868E-05  3.354877E-05  3.375007E-05
  3.395257E-05  3.415628E-05  3.436122E-05  3.456739E-05  3.477479E-05  3.498344E-05  3.519334E-05  3.540450E-05
  3.561693E-05  3.583063E-05  3.604561E-05  3.626189E-05  3.647946E-05  3.669834E-05  3.691853E-05  3.714004E-05
  3.736288E-05  3.758705E-05  3.781258E-05  3.803945E-05  3.826769E-05  3.849730E-05  3.872828E-05  3.896065E-05
  3.919441E-05  3.942958E-05  3.966616E-05  3.990415E-05  4.014358E-05  4.038444E-05  4.062675E-05  4.087051E-05
  4.111573E-05  4.136242E-05  4.161060E-05  4.186026E-05  4.211142E-05  4.236409E-05  4.261828E-05  4.287399E-05
  4.313123E-05  4.339002E-05  4.365036E-05  4.391226E-05  4.417573E-05  4.444079E-05  4.470743E-05  4.497568E-05
  4.524553E-05  4.551700E-05  4.579011E-05  4.606485E-05  4.634124E-05  4.661928E-05  4.689900E-05  4.718039E-05
  4.746348E-05  4.774826E-05  4.803475E-05  4.832295E-05  4.861289E-05  4.890457E-05  4.919800E-05  4.949319E-05
  4.979014E-05  5.008889E-05  5.038942E-05  5.069176E-05  5.099591E-05  5.130188E-05  5.160969E-05  5.191935E-05
  5.223087E-05  5.254425E-05  5.285952E-05  5.317667E-05  5.349573E-05  5.381671E-05  5.413961E-05  5.446445E-05
  5.479123E-05  5.511998E-05  5.545070E-05  5.578341E-05  5.611811E-05  5.645481E-05  5.679354E-05  5.713430E-05
  5.747711E-05  5.782197E-05  5.816890E-05  5.851792E-05  5.886903E-05  5.922224E-05  5.957757E-05  5.993504E-05
  6.029465E-05  6.065642E-05  6.102036E-05  6.138648E-05  6.175480E-05  6.212532E-05  6.249808E-05  6.287307E-05
  6.325030E-05  6.362981E-05  6.401158E-05  6.439565E-05  6.478203E-05  6.517072E-05  6.556174E-05  6.595511E-05
  6.635085E-05  6.674895E-05  6.714944E-05  6.755234E-05  6.795765E-05  6.836540E-05  6.877559E-05  6.918825E-05
  6.960338E-05  7.002100E-05  7.044112E-05  7.086377E-05  7.128895E-05  7.171669E-05  7.214699E-05  7.257987E-05
  7.301535E-05  7.345344E-05  7.389416E-05  7.433752E-05  7.478355E-05  7.523225E-05  7.568364E-05  7.613775E-05
  7.659457E-05  7.705414E-05  7.751647E-05  7.798156E-05  7.844945E-05  7.892015E-05  7.939367E-05  7.987003E-05
  8.034925E-05  8.083135E-05  8.131634E-05  8.180423E-05  8.229506E-05  8.278883E-05  8.328556E-05  8.378528E-05
  8.428799E-05  8.479372E-05  8.530248E-05  8.581429E-05  8.632918E-05  8.684715E-05  8.736824E-05  8.789245E-05
  8.841980E-05  8.895032E-05  8.948402E-05  9.002093E-05  9.056105E-05  9.110442E-05  9.165104E-05  9.220095E-05
  9.275416E-05  9.331068E-05  9.387055E-05  9.443377E-05  9.500037E-05  9.557037E-05  9.614380E-05  9.672066E-05
  9.730098E-05  9.788479E-05  9.847210E-05  9.906293E-05  9.965731E-05  1.002553E-04  1.008568E-04  1.014619E-04
  1.020707E-04  1.026831E-04  1.032992E-04  1.039190E-04  1.045425E-04  1.051698E-04  1.058008E-04  1.064356E-04
  1.070742E-04  1.077167E-04  1.083630E-04  1.090131E-04  1.096672E-04  1.103252E-04  1.109872E-04  1.116531E-04
  1.123230E-04  1.129970E-04  1.136749E-04  1.143570E-04  1.150431E-04  1.157334E-04  1.164278E-04  1.171264E-04
  1.178291E-04  1.185361E-04  1.192473E-04  1.199628E-04  1.206826E-04  1.214067E-04  1.221351E-04  1.228679E-04
  1.236051E-04  1.243467E-04  1.250928E-04  1.258434E-04  1.265984E-04  1.273580E-04  1.281222E-04  1.288909E-04
  1.296643E-04  1.304423E-04  1.312249E-04  1.320123E-04  1.328043E-04  1.336012E-04  1.344028E-04  1.352092E-04
  1.360204E-04  1.368366E-04  1.376576E-04  1.384835E-04  1.393144E-04  1.401503E-04  1.409912E-04  1.418372E-04
  1.426882E-04  1.435443E-04  1.444056E-04  1.452720E-04  1.461436E-04  1.470205E-04  1.479026E-04  1.487900E-04
  1.496828E-04  1.505809E-04  1.514844E-04  1.523933E-04  1.533076E-04  1.542275E-04  1.551528E-04  1.560838E-04
  1.570203E-04  1.579624E-04  1.589102E-04  1.598636E-04  1.608228E-04  1.617877E-04  1.627585E-04  1.637350E-04
  1.647174E-04  1.657057E-04  1.667000E-04  1.677002E-04  1.687064E-04  1.697186E-04  1.707369E-04  1.717613E-04
  1.727919E-04  1.738286E-04  1.748716E-04  1.759209E-04  1.769764E-04  1.780382E-04  1.791065E-04  1.801811E-04
  1.812622E-04  1.823498E-04  1.834439E-04  1.845445E-04  1.856518E-04  1.867657E-04  1.878863E-04  1.890136E-04
  1.901477E-04  1.912886E-04  1.924363E-04  1.935909E-04  1.947525E-04  1.959210E-04  1.970965E-04  1.982791E-04
  1.994688E-04  2.006656E-04  2.018696E-04  2.030808E-04  2.042993E-04  2.055251E-04  2.067582E-04  2.079988E-04
  2.092468E-04  2.105022E-04  2.117653E-04  2.130359E-04  2.143141E-04  2.156000E-04  2.168936E-04  2.181949E-04
  2.195041E-04  2.208211E-04  2.221460E-04  2.234789E-04  2.248198E-04  2.261687E-04  2.275257E-04  2.288909E-04
  2.302642E-04  2.316458E-04  2.330357E-04  2.344339E-04  2.358405E-04  2.372555E-04  2.386791E-04  2.401111E-04
  2.415518E-04  2.430011E-04  2.444591E-04  2.459259E-04  2.474014E-04  2.488858E-04  2.503792E-04  2.518814E-04
  2.533927E-04  2.549131E-04  2.564426E-04  2.579812E-04  2.595291E-04  2.610863E-04  2.626528E-04  2.642287E-04
  2.658141E-04  2.674090E-04  2.690134E-04  2.706275E-04  2.722513E-04  2.738848E-04  2.755281E-04  2.771813E-04
  2.788443E-04  2.805174E-04  2.822005E-04  2.838937E-04  2.855971E-04  2.873107E-04  2.890345E-04  2.907687E-04
  2.925133E-04  2.942684E-04  2.960340E-04  2.978102E-04  2.995971E-04  3.013947E-04  3.032030E-04  3.050223E-04
  3.068524E-04  3.086935E-04  3.105457E-04  3.124090E-04  3.142834E-04  3.161691E-04  3.180661E-04  3.199745E-04
  3.218944E-04  3.238257E-04  3.257687E-04  3.277233E-04  3.296896E-04  3.316678E-04  3.336578E-04  3.356597E-04
  3.376737E-04  3.396997E-04  3.417379E-04  3.437884E-04  3.458511E-04  3.479262E-04  3.500137E-04  3.521138E-04
  3.542265E-04  3.563519E-04  3.584900E-04  3.606409E-04  3.628048E-04  3.649816E-04  3.671715E-04  3.693745E-04
  3.715908E-04  3.738203E-04  3.760632E-04  3.783196E-04  3.805895E-04  3.828731E-04  3.851703E-04  3.874813E-04
  3.898062E-04  3.921450E-04  3.944979E-04  3.968649E-04  3.992461E-04  4.016416E-04  4.040514E-04  4.064757E-04
  4.089146E-04  4.113681E-04  4.138363E-04  4.163193E-04  4.188172E-04  4.213301E-04  4.238581E-04  4.264012E-04
  4.289597E-04  4.315334E-04  4.341226E-04  4.367273E-04  4.393477E-04  4.419838E-04  4.446357E-04  4.473035E-04
  4.499873E-04  4.526873E-04  4.554034E-04  4.581358E-04  4.608846E-04  4.636499E-04  4.664318E-04  4.692304E-04
  4.720458E-04  4.748781E-04  4.777273E-04  4.805937E-04  4.834773E-04  4.863781E-04  4.892964E-04  4.922322E-04
  4.951856E-04  4.981567E-04  5.011456E-04  5.041525E-04  5.071774E-04  5.102205E-04  5.132818E-04  5.163615E-04
  5.194597E-04  5.225764E-04  5.257119E-04  5.288661E-04  5.320393E-04  5.352316E-04  5.384430E-04  5.416736E-04
  5.449237E-04  5.481932E-04  5.514824E-04  5.547913E-04  5.581200E-04  5.614687E-04  5.648375E-04  5.682266E-04
  5.716359E-04  5.750657E-04  5.785161E-04  5.819872E-04  5.854792E-04  5.889920E-04  5.925260E-04  5.960811E-04
  5.996576E-04  6.032556E-04  6.068751E-04  6.105164E-04  6.141795E-04  6.178645E-04  6.215717E-04  6.253012E-04
  6.290530E-04  6.328273E-04  6.366242E-04  6.404440E-04  6.442867E-04  6.481524E-04  6.520413E-04  6.559535E-04
  6.598893E-04  6.638486E-04  6.678317E-04  6.718387E-04  6.758697E-04  6.799249E-04  6.840045E-04  6.881085E-04
  6.922372E-04  6.963906E-04  7.005689E-04  7.047723E-04  7.090010E-04  7.132550E-04  7.175345E-04  7.218397E-04
  7.261707E-04  7.305278E-04  7.349109E-04  7.393204E-04  7.437563E-04  7.482189E-04  7.527082E-04  7.572244E-04
  7.617678E-04  7.663384E-04  7.709364E-04  7.755620E-04  7.802154E-04  7.848967E-04  7.896061E-04  7.943437E-04
  7.991098E-04  8.039044E-04  8.087279E-04  8.135802E-04  8.184617E-04  8.233725E-04  8.283127E-04  8.332826E-04
  8.382823E-04  8.433120E-04  8.483718E-04  8.534621E-04  8.585828E-04  8.637343E-04  8.689168E-04  8.741303E-04
  8.793750E-04  8.846513E-04  8.899592E-04  8.952989E-04  9.006707E-04  9.060748E-04  9.115112E-04  9.169803E-04
  9.224822E-04  9.280171E-04  9.335852E-04  9.391867E-04  9.448218E-04  9.504907E-04  9.561937E-04  9.619308E-04
  9.677024E-04  9.735086E-04  9.793497E-04  9.852258E-04  9.911371E-04  9.970840E-04  1.003066E-03  1.009085E-03
  1.015139E-03  1.021230E-03  1.027358E-03  1.033522E-03  1.039723E-03  1.045961E-03  1.052237E-03  1.058550E-03
  1.064902E-03  1.071291E-03  1.077719E-03  1.084185E-03  1.090690E-03  1.097234E-03  1.103818E-03  1.110441E-03
  1.117103E-03  1.123806E-03  1.130549E-03  1.137332E-03  1.144156E-03  1.151021E-03  1.157927E-03  1.164875E-03
  1.171864E-03  1.178895E-03  1.185969E-03  1.193084E-03  1.200243E-03  1.207444E-03  1.214689E-03  1.221977E-03
  1.229309E-03  1.236685E-03  1.244105E-03  1.251570E-03  1.259079E-03  1.266633E-03  1.274233E-03  1.281879E-03
  1.289570E-03  1.297307E-03  1.305091E-03  1.312922E-03  1.320799E-03  1.328724E-03  1.336696E-03  1.344717E-03
  1.352785E-03  1.360902E-03  1.369067E-03  1.377281E-03  1.385545E-03  1.393858E-03  1.402222E-03  1.410635E-03
  1.419099E-03  1.427613E-03  1.436179E-03  1.444796E-03  1.453465E-03  1.462186E-03  1.470959E-03  1.479784E-03
  1.488663E-03  1.497595E-03  1.506581E-03  1.515620E-03  1.524714E-03  1.533862E-03  1.543065E-03  1.552324E-03
  1.561638E-03  1.571008E-03  1.580434E-03  1.589916E-03  1.599456E-03  1.609052E-03  1.618707E-03  1.628419E-03
  1.638189E-03  1.648019E-03  1.657907E-03  1.667854E-03  1.677861E-03  1.687928E-03  1.698056E-03  1.708244E-03
  1.718494E-03  1.728805E-03  1.739178E-03  1.749613E-03  1.760110E-03  1.770671E-03  1.781295E-03  1.791983E-03
  1.802735E-03  1.813551E-03  1.824432E-03  1.835379E-03  1.846391E-03  1.857470E-03  1.868614E-03  1.879826E-03
  1.891105E-03  1.902452E-03  1.913866E-03  1.925350E-03  1.936902E-03  1.948523E-03  1.960214E-03  1.971976E-03
  1.983807E-03  1.995710E-03  2.007685E-03  2.019731E-03  2.031849E-03  2.044040E-03  2.056304E-03  2.068642E-03
  2.081054E-03  2.093540E-03  2.106102E-03  2.118738E-03  2.131451E-03  2.144239E-03  2.157105E-03  2.170047E-03
  2.183068E-03  2.196166E-03  2.209343E-03  2.222599E-03  2.235935E-03  2.249350E-03  2.262846E-03  2.276424E-03
  2.290082E-03  2.303823E-03  2.317646E-03  2.331551E-03  2.345541E-03  2.359614E-03  2.373772E-03  2.388014E-03
  2.402342E-03  2.416756E-03  2.431257E-03  2.445844E-03  2.460520E-03  2.475283E-03  2.490134E-03  2.505075E-03
  2.520106E-03  2.535226E-03  2.550438E-03  2.565740E-03  2.581135E-03  2.596621E-03  2.612201E-03  2.627874E-03
  2.643642E-03  2.659503E-03  2.675461E-03  2.691513E-03  2.707662E-03  2.723908E-03  2.740252E-03  2.756693E-03
  2.773233E-03  2.789873E-03  2.806612E-03  2.823452E-03  2.840392E-03  2.857435E-03  2.874579E-03  2.891827E-03
  2.909178E-03  2.926633E-03  2.944193E-03  2.961858E-03  2.979629E-03  2.997507E-03  3.015492E-03  3.033585E-03
  3.051786E-03  3.070097E-03  3.088518E-03  3.107049E-03  3.125691E-03  3.144445E-03  3.163312E-03  3.182292E-03
  3.201385E-03  3.220594E-03  3.239917E-03  3.259357E-03  3.278913E-03  3.298586E-03  3.318378E-03  3.338288E-03
  3.358318E-03  3.378468E-03  3.398739E-03  3.419131E-03  3.439646E-03  3.460284E-03  3.481045E-03  3.501932E-03
  3.522943E-03  3.544081E-03  3.565345E-03  3.586738E-03  3.608258E-03  3.629908E-03  3.651687E-03  3.673597E-03
  3.695639E-03  3.717813E-03  3.740119E-03  3.762560E-03  3.785135E-03  3.807846E-03  3.830693E-03  3.853678E-03
  3.876800E-03  3.900060E-03  3.923461E-03  3.947002E-03  3.970684E-03  3.994508E-03  4.018475E-03  4.042586E-03
  4.066841E-03  4.091242E-03  4.115790E-03  4.140484E-03  4.165327E-03  4.190319E-03  4.215461E-03  4.240754E-03
  4.266198E-03  4.291796E-03  4.317546E-03  4.343452E-03  4.369512E-03  4.395729E-03  4.422104E-03  4.448636E-03
  4.475328E-03  4.502180E-03  4.529193E-03  4.556368E-03  4.583707E-03  4.611209E-03  4.638876E-03  4.666709E-03
  4.694710E-03  4.722878E-03  4.751215E-03  4.779722E-03  4.808401E-03  4.837251E-03  4.866275E-03  4.895472E-03
  4.924845E-03  4.954394E-03  4.984121E-03  5.014025E-03  5.044109E-03  5.074374E-03  5.104820E-03  5.135449E-03
  5.166262E-03  5.197260E-03  5.228443E-03  5.259814E-03  5.291373E-03  5.323121E-03  5.355060E-03  5.387190E-03
  5.419513E-03  5.452030E-03  5.484742E-03  5.517651E-03  5.550757E-03  5.584061E-03  5.617566E-03  5.651271E-03
  5.685179E-03  5.719290E-03  5.753605E-03  5.788127E-03  5.822856E-03  5.857793E-03  5.892940E-03  5.928297E-03
  5.963867E-03  5.999650E-03  6.035648E-03  6.071862E-03  6.108293E-03  6.144943E-03  6.181813E-03  6.218904E-03
  6.256217E-03  6.293754E-03  6.331517E-03  6.369506E-03  6.407723E-03  6.446169E-03  6.484846E-03  6.523755E-03
  6.562898E-03  6.602275E-03  6.641889E-03  6.681740E-03  6.721831E-03  6.762162E-03  6.802735E-03  6.843551E-03
  6.884612E-03  6.925920E-03  6.967476E-03  7.009281E-03  7.051336E-03  7.093644E-03  7.136206E-03  7.179023E-03
  7.222097E-03  7.265430E-03  7.309023E-03  7.352877E-03  7.396994E-03  7.441376E-03  7.486024E-03  7.530940E-03
  7.576126E-03  7.621583E-03  7.667312E-03  7.713316E-03  7.759596E-03  7.806154E-03  7.852991E-03  7.900109E-03
  7.947509E-03  7.995194E-03  8.043165E-03  8.091424E-03  8.139973E-03  8.188813E-03  8.237946E-03  8.287373E-03
  8.337098E-03  8.387120E-03  8.437443E-03  8.488068E-03  8.538996E-03  8.590230E-03  8.641771E-03  8.693622E-03
  8.745784E-03  8.798258E-03  8.851048E-03  8.904154E-03  8.957579E-03  9.011325E-03  9.065393E-03  9.119785E-03
  9.174504E-03  9.229551E-03  9.284928E-03  9.340637E-03  9.396681E-03  9.453061E-03  9.509780E-03  9.566838E-03
  9.624239E-03  9.681985E-03  9.740077E-03  9.798517E-03  9.857308E-03  9.916452E-03  9.975951E-03  1.003581E-02
  1.009602E-02  1.015660E-02  1.021754E-02  1.027884E-02  1.034052E-02  1.040256E-02  1.046497E-02  1.052776E-02
  1.059093E-02  1.065448E-02  1.071840E-02  1.078271E-02  1.084741E-02  1.091249E-02  1.097797E-02  1.104384E-02
  1.111010E-02  1.117676E-02  1.124382E-02  1.131128E-02  1.137915E-02  1.144743E-02  1.151611E-02  1.158521E-02
  1.165472E-02  1.172465E-02  1.179500E-02  1.186577E-02  1.193696E-02  1.200858E-02  1.208063E-02  1.215312E-02
  1.222604E-02  1.229939E-02  1.237319E-02  1.244743E-02  1.252211E-02  1.259724E-02  1.267283E-02  1.274886E-02
  1.282536E-02  1.290231E-02  1.297972E-02  1.305760E-02  1.313595E-02  1.321476E-02  1.329405E-02  1.337382E-02
  1.345406E-02  1.353478E-02  1.361599E-02  1.369769E-02  1.377987E-02  1.386255E-02  1.394573E-02  1.402940E-02
  1.411358E-02  1.419826E-02  1.428345E-02  1.436915E-02  1.445537E-02  1.454210E-02  1.462935E-02  1.471713E-02
  1.480543E-02  1.489426E-02  1.498363E-02  1.507353E-02  1.516397E-02  1.525496E-02  1.534648E-02  1.543856E-02
  1.553120E-02  1.562438E-02  1.571813E-02  1.581244E-02  1.590731E-02  1.600276E-02  1.609877E-02  1.619537E-02
  1.629254E-02  1.639029E-02  1.648863E-02  1.658757E-02  1.668709E-02  1.678721E-02  1.688794E-02  1.698926E-02
  1.709120E-02  1.719375E-02  1.729691E-02  1.740069E-02  1.750510E-02  1.761013E-02  1.771579E-02  1.782208E-02
  1.792901E-02  1.803659E-02  1.814481E-02  1.825368E-02  1.836320E-02  1.847338E-02  1.858422E-02  1.869572E-02
  1.880790E-02  1.892075E-02  1.903427E-02  1.914848E-02  1.926337E-02  1.937895E-02  1.949522E-02  1.961219E-02
  1.972986E-02  1.984824E-02  1.996733E-02  2.008714E-02  2.020766E-02  2.032891E-02  2.045088E-02  2.057358E-02
  2.069703E-02  2.082121E-02  2.094614E-02  2.107181E-02  2.119824E-02  2.132543E-02  2.145339E-02  2.158211E-02
  2.171160E-02  2.184187E-02  2.197292E-02  2.210476E-02  2.223739E-02  2.237081E-02  2.250503E-02  2.264006E-02
  2.277591E-02  2.291256E-02  2.305004E-02  2.318834E-02  2.332747E-02  2.346743E-02  2.360824E-02  2.374988E-02
  2.389238E-02  2.403574E-02  2.417995E-02  2.432503E-02  2.447098E-02  2.461781E-02  2.476552E-02  2.491411E-02
  2.506359E-02  2.521397E-02  2.536526E-02  2.551745E-02  2.567055E-02  2.582458E-02  2.597953E-02  2.613540E-02
  2.629222E-02  2.644997E-02  2.660867E-02  2.676832E-02  2.692893E-02  2.709050E-02  2.725305E-02  2.741657E-02
  2.758106E-02  2.774655E-02  2.791303E-02  2.808051E-02  2.824899E-02  2.841849E-02  2.858900E-02  2.876053E-02
  2.893309E-02  2.910669E-02  2.928133E-02  2.945702E-02  2.963376E-02  2.981157E-02  2.999043E-02  3.017038E-02
  3.035140E-02  3.053351E-02  3.071671E-02  3.090101E-02  3.108642E-02  3.127293E-02  3.146057E-02  3.164933E-02
  3.183923E-02  3.203027E-02  3.222245E-02  3.241578E-02  3.261028E-02  3.280594E-02  3.300277E-02  3.320079E-02
  3.340000E-02  3.360040E-02  3.380200E-02  3.400481E-02  3.420884E-02  3.441409E-02  3.462058E-02  3.482830E-02
  3.503727E-02  3.524749E-02  3.545898E-02  3.567173E-02  3.588576E-02  3.610108E-02  3.631768E-02  3.653559E-02
  3.675480E-02  3.697533E-02  3.719718E-02  3.742037E-02  3.764489E-02  3.787076E-02  3.809798E-02  3.832657E-02
  3.855653E-02  3.878787E-02  3.902060E-02  3.925472E-02  3.949025E-02  3.972719E-02  3.996555E-02  4.020535E-02
  4.044658E-02  4.068926E-02  4.093339E-02  4.117899E-02  4.142607E-02  4.167462E-02  4.192467E-02  4.217622E-02
  4.242928E-02  4.268385E-02  4.293996E-02  4.319760E-02  4.345678E-02  4.371752E-02  4.397983E-02  4.424371E-02
  4.450917E-02  4.477622E-02  4.504488E-02  4.531515E-02  4.558704E-02  4.586056E-02  4.613573E-02  4.641254E-02
  4.669102E-02  4.697116E-02  4.725299E-02  4.753651E-02  4.782173E-02  4.810866E-02  4.839731E-02  4.868769E-02
  4.897982E-02  4.927370E-02  4.956934E-02  4.986676E-02  5.016596E-02  5.046695E-02  5.076975E-02  5.107437E-02
  5.138082E-02  5.168910E-02  5.199924E-02  5.231123E-02  5.262510E-02  5.294085E-02  5.325850E-02  5.357805E-02
  5.389952E-02  5.422291E-02  5.454825E-02  5.487554E-02  5.520479E-02  5.553602E-02  5.586924E-02  5.620445E-02
  5.654168E-02  5.688093E-02  5.722222E-02  5.756555E-02  5.791094E-02  5.825841E-02  5.860796E-02  5.895961E-02
  5.931336E-02  5.966924E-02  6.002726E-02  6.038742E-02  6.074975E-02  6.111425E-02  6.148093E-02  6.184982E-02
  6.222092E-02  6.259424E-02  6.296981E-02  6.334763E-02  6.372771E-02  6.411008E-02  6.449474E-02  6.488171E-02
  6.527100E-02  6.566262E-02  6.605660E-02  6.645294E-02  6.685166E-02  6.725277E-02  6.765628E-02  6.806222E-02
  6.847059E-02  6.888142E-02  6.929471E-02  6.971047E-02  7.012874E-02  7.054951E-02  7.097281E-02  7.139864E-02
  7.182704E-02  7.225800E-02  7.269155E-02  7.312769E-02  7.356646E-02  7.400786E-02  7.445191E-02  7.489862E-02
  7.534801E-02  7.580010E-02  7.625490E-02  7.671243E-02  7.717270E-02  7.763574E-02  7.810155E-02  7.857016E-02
  7.904158E-02  7.951583E-02  7.999293E-02  8.047289E-02  8.095572E-02  8.144146E-02  8.193011E-02  8.242169E-02
  8.291622E-02  8.341371E-02  8.391420E-02  8.441768E-02  8.492419E-02  8.543373E-02  8.594634E-02  8.646201E-02
  8.698079E-02  8.750267E-02  8.802769E-02  8.855585E-02  8.908719E-02  8.962171E-02  9.015944E-02  9.070040E-02
  9.124460E-02  9.179207E-02  9.234282E-02  9.289688E-02  9.345426E-02  9.401498E-02  9.457907E-02  9.514655E-02
  9.571743E-02  9.629173E-02  9.686948E-02  9.745070E-02  9.803540E-02  9.862362E-02  9.921536E-02  9.981065E-02
  1.004095E-01  1.010120E-01  1.016180E-01  1.022278E-01  1.028411E-01  1.034582E-01  1.040789E-01  1.047034E-01
  1.053316E-01  1.059636E-01  1.065994E-01  1.072390E-01  1.078824E-01  1.085297E-01  1.091809E-01  1.098360E-01
  1.104950E-01  1.111580E-01  1.118249E-01  1.124958E-01  1.131708E-01  1.138498E-01  1.145329E-01  1.152201E-01
  1.159115E-01  1.166069E-01  1.173066E-01  1.180104E-01  1.187185E-01  1.194308E-01  1.201474E-01  1.208683E-01
  1.215935E-01  1.223230E-01  1.230570E-01  1.237953E-01  1.245381E-01  1.252853E-01  1.260370E-01  1.267932E-01
  1.275540E-01  1.283193E-01  1.290892E-01  1.298638E-01  1.306430E-01  1.314268E-01  1.322154E-01  1.330087E-01
  1.338067E-01  1.346096E-01  1.354172E-01  1.362297E-01  1.370471E-01  1.378694E-01  1.386966E-01  1.395288E-01
  1.403660E-01  1.412081E-01  1.420554E-01  1.429077E-01  1.437652E-01  1.446278E-01  1.454955E-01  1.463685E-01
  1.472467E-01  1.481302E-01  1.490190E-01  1.499131E-01  1.508126E-01  1.517174E-01  1.526278E-01  1.535435E-01
  1.544648E-01  1.553916E-01  1.563239E-01  1.572619E-01  1.582054E-01  1.591547E-01  1.601096E-01  1.610703E-01
  1.620367E-01  1.630089E-01  1.639869E-01  1.649709E-01  1.659607E-01  1.669565E-01  1.679582E-01  1.689659E-01
  1.699797E-01  1.709996E-01  1.720256E-01  1.730578E-01  1.740961E-01  1.751407E-01  1.761915E-01  1.772487E-01
  1.783122E-01  1.793821E-01  1.804583E-01  1.815411E-01  1.826303E-01  1.837261E-01  1.848285E-01  1.859375E-01
  1.870531E-01  1.881754E-01  1.893044E-01  1.904403E-01  1.915829E-01  1.927324E-01  1.938888E-01  1.950521E-01
  1.962225E-01  1.973998E-01  1.985842E-01  1.997757E-01  2.009743E-01  2.021802E-01  2.033933E-01  2.046136E-01
  2.058413E-01  2.070764E-01  2.083188E-01  2.095687E-01  2.108261E-01  2.120911E-01  2.133637E-01  2.146438E-01
  2.159317E-01  2.172273E-01  2.185306E-01  2.198418E-01  2.211609E-01  2.224878E-01  2.238228E-01  2.251657E-01
  2.265167E-01  2.278758E-01  2.292431E-01  2.306185E-01  2.320022E-01  2.333942E-01  2.347946E-01  2.362034E-01
  2.376206E-01  2.390463E-01  2.404806E-01  2.419235E-01  2.433750E-01  2.448353E-01  2.463043E-01  2.477821E-01
  2.492688E-01  2.507644E-01  2.522690E-01  2.537826E-01  2.553053E-01  2.568371E-01  2.583782E-01  2.599284E-01
  2.614880E-01  2.630569E-01  2.646353E-01  2.662231E-01  2.678204E-01  2.694274E-01  2.710439E-01  2.726702E-01
  2.743062E-01  2.759520E-01  2.776077E-01  2.792734E-01  2.809490E-01  2.826347E-01  2.843305E-01  2.860365E-01
  2.877527E-01  2.894793E-01  2.912161E-01  2.929634E-01  2.947212E-01  2.964895E-01  2.982685E-01  3.000581E-01
  3.018584E-01  3.036696E-01  3.054916E-01  3.073246E-01  3.091685E-01  3.110235E-01  3.128897E-01  3.147670E-01
  3.166556E-01  3.185555E-01  3.204669E-01  3.223897E-01  3.243240E-01  3.262699E-01  3.282276E-01  3.301969E-01
  3.321781E-01  3.341712E-01  3.361762E-01  3.381933E-01  3.402224E-01  3.422638E-01  3.443173E-01  3.463832E-01
  3.484615E-01  3.505523E-01  3.526556E-01  3.547716E-01  3.569002E-01  3.590416E-01  3.611958E-01  3.633630E-01
  3.655432E-01  3.677364E-01  3.699429E-01  3.721625E-01  3.743955E-01  3.766419E-01  3.789017E-01  3.811751E-01
  3.834622E-01  3.857630E-01  3.880775E-01  3.904060E-01  3.927484E-01  3.951049E-01  3.974756E-01  3.998604E-01
  4.022596E-01  4.046731E-01  4.071012E-01  4.095438E-01  4.120010E-01  4.144730E-01  4.169599E-01  4.194616E-01
  4.219784E-01  4.245103E-01  4.270573E-01  4.296197E-01  4.321974E-01  4.347906E-01  4.373993E-01  4.400237E-01
  4.426639E-01  4.453199E-01  4.479918E-01  4.506797E-01  4.533838E-01  4.561041E-01  4.588407E-01  4.615938E-01
  4.643633E-01  4.671495E-01  4.699524E-01  4.727721E-01  4.756088E-01  4.784624E-01  4.813332E-01  4.842212E-01
  4.871265E-01  4.900493E-01  4.929896E-01  4.959475E-01  4.989232E-01  5.019167E-01  5.049282E-01  5.079578E-01
  5.110056E-01  5.140716E-01  5.171560E-01  5.202589E-01  5.233805E-01  5.265208E-01  5.296799E-01  5.328580E-01
  5.360551E-01  5.392715E-01  5.425071E-01  5.457621E-01  5.490367E-01  5.523309E-01  5.556449E-01  5.589788E-01
  5.623327E-01  5.657067E-01  5.691009E-01  5.725155E-01  5.759506E-01  5.794063E-01  5.828827E-01  5.863800E-01
  5.898983E-01  5.934377E-01  5.969983E-01  6.005803E-01  6.041838E-01  6.078089E-01  6.114558E-01  6.151245E-01
  6.188152E-01  6.225281E-01  6.262633E-01  6.300209E-01  6.338010E-01  6.376038E-01  6.414294E-01  6.452780E-01
  6.491497E-01  6.530446E-01  6.569628E-01  6.609046E-01  6.648700E-01  6.688593E-01  6.728724E-01  6.769097E-01
  6.809711E-01  6.850569E-01  6.891673E-01  6.933023E-01  6.974621E-01  7.016469E-01  7.058568E-01  7.100919E-01
  7.143524E-01  7.186386E-01  7.229504E-01  7.272881E-01  7.316518E-01  7.360417E-01  7.404580E-01  7.449007E-01
  7.493701E-01  7.538664E-01  7.583896E-01  7.629399E-01  7.675175E-01  7.721226E-01  7.767554E-01  7.814159E-01
  7.861044E-01  7.908210E-01  7.955660E-01  8.003394E-01  8.051414E-01  8.099722E-01  8.148321E-01  8.197211E-01
  8.246394E-01  8.295872E-01  8.345647E-01  8.395721E-01  8.446096E-01  8.496772E-01  8.547753E-01  8.599039E-01
  8.650634E-01  8.702537E-01  8.754753E-01  8.807281E-01  8.860125E-01  8.913286E-01  8.966765E-01  9.020566E-01
  9.074689E-01  9.129137E-01  9.183912E-01  9.239016E-01  9.294450E-01  9.350217E-01  9.406318E-01  9.462756E-01
  9.519532E-01  9.576650E-01  9.634109E-01  9.691914E-01  9.750066E-01  9.808566E-01  9.867417E-01  9.926622E-01
  9.986182E-01  1.004610E+00  1.010638E+00  1.016701E+00  1.022802E+00  1.028938E+00  1.035112E+00  1.041323E+00
  1.047571E+00  1.053856E+00  1.060179E+00  1.066540E+00  1.072939E+00  1.079377E+00  1.085853E+00  1.092369E+00
  1.098923E+00  1.105516E+00  1.112149E+00  1.118822E+00  1.125535E+00  1.132288E+00  1.139082E+00  1.145917E+00
  1.152792E+00  1.159709E+00  1.166667E+00  1.173667E+00  1.180709E+00  1.187793E+00  1.194920E+00  1.202090E+00
  1.209302E+00  1.216558E+00  1.223857E+00  1.231201E+00  1.238588E+00  1.246019E+00  1.253495E+00  1.261016E+00
  1.268582E+00  1.276194E+00  1.283851E+00  1.291554E+00  1.299304E+00  1.307099E+00  1.314942E+00  1.322832E+00
  1.330769E+00  1.338753E+00  1.346786E+00  1.354866E+00  1.362996E+00  1.371174E+00  1.379401E+00  1.387677E+00
  1.396003E+00  1.404379E+00  1.412805E+00  1.421282E+00  1.429810E+00  1.438389E+00  1.447019E+00  1.455701E+00
  1.464435E+00  1.473222E+00  1.482061E+00  1.490954E+00  1.499899E+00  1.508899E+00  1.517952E+00  1.527060E+00
  1.536222E+00  1.545440E+00  1.554712E+00  1.564041E+00  1.573425E+00  1.582865E+00  1.592363E+00  1.601917E+00
  1.611528E+00  1.621197E+00  1.630925E+00  1.640710E+00  1.650554E+00  1.660458E+00  1.670420E+00  1.680443E+00
  1.690526E+00  1.700669E+00  1.710873E+00  1.721138E+00  1.731465E+00  1.741854E+00  1.752305E+00  1.762819E+00
  1.773396E+00  1.784036E+00  1.794740E+00  1.805509E+00  1.816342E+00  1.827240E+00  1.838203E+00  1.849232E+00
  1.860328E+00  1.871490E+00  1.882719E+00  1.894015E+00  1.905379E+00  1.916811E+00  1.928312E+00  1.939882E+00
  1.951521E+00  1.963230E+00  1.975010E+00  1.986860E+00  1.998781E+00  2.010774E+00  2.022838E+00  2.034975E+00
  2.047185E+00  2.059468E+00  2.071825E+00  2.084256E+00  2.096762E+00  2.109342E+00  2.121998E+00  2.134730E+00
  2.147539E+00  2.160424E+00  2.173386E+00  2.186427E+00  2.199545E+00  2.212743E+00  2.226019E+00  2.239375E+00
  2.252811E+00  2.266328E+00  2.279926E+00  2.293606E+00  2.307367E+00  2.321212E+00  2.335139E+00  2.349150E+00
  2.363245E+00  2.377424E+00  2.391689E+00  2.406039E+00  2.420475E+00  2.434998E+00  2.449608E+00  2.464306E+00
  2.479091E+00  2.493966E+00  2.508930E+00  2.523983E+00  2.539127E+00  2.554362E+00  2.569688E+00  2.585106E+00
  2.600617E+00  2.616221E+00  2.631918E+00  2.647709E+00  2.663596E+00  2.679577E+00  2.695655E+00  2.711829E+00
  2.728100E+00  2.744468E+00  2.760935E+00  2.777501E+00  2.794166E+00  2.810931E+00  2.827796E+00  2.844763E+00
  2.861832E+00  2.879003E+00  2.896277E+00  2.913654E+00  2.931136E+00  2.948723E+00  2.966415E+00  2.984214E+00
  3.002119E+00  3.020132E+00  3.038253E+00  3.056482E+00  3.074821E+00  3.093270E+00  3.111830E+00  3.130500E+00
  3.149283E+00  3.168179E+00  3.187188E+00  3.206311E+00  3.225549E+00  3.244903E+00  3.264372E+00  3.283958E+00