<UPF version="2.0.1">
  <PP_INFO>

 This pseudopotential file has been produced using the code
 ONCVPSP  (Optimized Norm-Conservinng Vanderbilt PSeudopotential)
 scalar-relativistic version 4.0.1 06/20/2107 by D. R. Hamann
 The code is available through a link at URL www.mat-simresearch.com.
 Documentation with the package provides a full discription of the
 input data below.


 While it is not required under the terms of the GNU GPL, it is
 suggested that you cite D. R. Hamann, Phys. Rev. B 88, 085117 (2013)
 in any publication using these pseudopotentials.

    <PP_INPUTFILE>
# ATOM AND REFERENCE CONFIGURATION
# atsym  z   nc   nv     iexc    psfile
  Na 11.00    1    3 -116133      upf
#
#   n    l    f        energy (Ha)
    1    0    2.00
    2    0    2.00
    2    1    6.00
    3    0    1.00
#
# PSEUDOPOTENTIAL AND OPTIMIZATION
# lmax
    1
#
#   l,   rc,      ep,       ncon, nbas, qcut
    0   1.76154  -2.08564    4    7  11.04266
    1   2.20000  -1.05371    4    7   6.15750
#
# LOCAL POTENTIAL
# lloc, lpopt,  rc(5),   dvloc0
    4    5   1.20000      0.00000
#
# VANDERBILT-KLEINMAN-BYLANDER PROJECTORs
# l, nproj, debl
    0    2   1.98480
    1    2   3.00000
#
# MODEL CORE CHARGE
# icmod, fcfact, rcfact
    0   0.00000   0.00000
#
# LOG DERIVATIVE ANALYSIS
# epsh1, epsh2, depsh
  -12.00   12.00    0.02
#
# OUTPUT GRID (using internal log mesh)

# mmax =   2307, rmax =   4.4516E+01
#
# TEST CONFIGURATIONS
# ncnf
    0
# nvcnf
#   n    l    f
    </PP_INPUTFILE>
  </PP_INFO>
  <!--                               -->
  <!-- END OF HUMAN READABLE SECTION -->
  <!--                               -->
    <PP_HEADER
       generated="Generated using ONCVPSP code by D. R. Hamann"
       author="anonymous"
       date="260127"
       comment=""
       element="Na"
       pseudo_type="NC"
       relativistic="scalar"
       is_ultrasoft="F"
       is_paw="F"
       is_coulomb="F"
       has_so="F"
       has_wfc="F"
       has_gipaw="T"
       core_correction="F"
       functional="PBESOL"
       z_valence="    9.00"
       total_psenergy="  -8.33262650800E+01"
       rho_cutoff="   4.45164843800E+01"
       l_max="1"
       l_local="-1"
       mesh_size="  2307"
       number_of_wfc="3"
       number_of_proj="4"/>
 <PP_MESH dx="  5.98207167754747E-03" mesh="2307" xmin=" -9.99879773234045E+00" rmax="  4.45164843800219E+01" zmesh="1.0">
   <PP_R type="real"  size="  2307" columns="8">
  4.545455E-05  4.572727E-05  4.600164E-05  4.627765E-05  4.655531E-05  4.683464E-05  4.711565E-05  4.739835E-05
  4.768274E-05  4.796883E-05  4.825665E-05  4.854619E-05  4.883746E-05  4.913049E-05  4.942527E-05  4.972182E-05
  5.002015E-05  5.032027E-05  5.062219E-05  5.092593E-05  5.123148E-05  5.153887E-05  5.184811E-05  5.215919E-05
  5.247215E-05  5.278698E-05  5.310370E-05  5.342233E-05  5.374286E-05  5.406532E-05  5.438971E-05  5.471605E-05
  5.504434E-05  5.537461E-05  5.570686E-05  5.604110E-05  5.637735E-05  5.671561E-05  5.705590E-05  5.739824E-05
  5.774263E-05  5.808908E-05  5.843762E-05  5.878824E-05  5.914097E-05  5.949582E-05  5.985279E-05  6.021191E-05
  6.057318E-05  6.093662E-05  6.130224E-05  6.167006E-05  6.204008E-05  6.241232E-05  6.278679E-05  6.316351E-05
  6.354249E-05  6.392375E-05  6.430729E-05  6.469313E-05  6.508129E-05  6.547178E-05  6.586461E-05  6.625980E-05
  6.665736E-05  6.705730E-05  6.745964E-05  6.786440E-05  6.827159E-05  6.868122E-05  6.909331E-05  6.950787E-05
  6.992491E-05  7.034446E-05  7.076653E-05  7.119113E-05  7.161827E-05  7.204798E-05  7.248027E-05  7.291515E-05
  7.335264E-05  7.379276E-05  7.423552E-05  7.468093E-05  7.512902E-05  7.557979E-05  7.603327E-05  7.648947E-05
  7.694841E-05  7.741010E-05  7.787456E-05  7.834180E-05  7.881185E-05  7.928473E-05  7.976043E-05  8.023900E-05
  8.072043E-05  8.120475E-05  8.169198E-05  8.218213E-05  8.267523E-05  8.317128E-05  8.367031E-05  8.417233E-05
  8.467736E-05  8.518543E-05  8.569654E-05  8.621072E-05  8.672798E-05  8.724835E-05  8.777184E-05  8.829847E-05
  8.882826E-05  8.936123E-05  8.989740E-05  9.043678E-05  9.097940E-05  9.152528E-05  9.207443E-05  9.262688E-05
  9.318264E-05  9.374173E-05  9.430419E-05  9.487001E-05  9.543923E-05  9.601187E-05  9.658794E-05  9.716746E-05
  9.775047E-05  9.833697E-05  9.892699E-05  9.952056E-05  1.001177E-04  1.007184E-04  1.013227E-04  1.019306E-04
  1.025422E-04  1.031575E-04  1.037764E-04  1.043991E-04  1.050255E-04  1.056556E-04  1.062896E-04  1.069273E-04
  1.075689E-04  1.082143E-04  1.088636E-04  1.095167E-04  1.101738E-04  1.108349E-04  1.114999E-04  1.121689E-04
  1.128419E-04  1.135190E-04  1.142001E-04  1.148853E-04  1.155746E-04  1.162680E-04  1.169656E-04  1.176674E-04
  1.183734E-04  1.190837E-04  1.197982E-04  1.205170E-04  1.212401E-04  1.219675E-04  1.226993E-04  1.234355E-04
  1.241761E-04  1.249212E-04  1.256707E-04  1.264247E-04  1.271833E-04  1.279464E-04  1.287141E-04  1.294863E-04
  1.302633E-04  1.310448E-04  1.318311E-04  1.326221E-04  1.334178E-04  1.342183E-04  1.350236E-04  1.358338E-04
  1.366488E-04  1.374687E-04  1.382935E-04  1.391232E-04  1.399580E-04  1.407977E-04  1.416425E-04  1.424924E-04
  1.433473E-04  1.442074E-04  1.450727E-04  1.459431E-04  1.468188E-04  1.476997E-04  1.485859E-04  1.494774E-04
  1.503742E-04  1.512765E-04  1.521842E-04  1.530973E-04  1.540158E-04  1.549399E-04  1.558696E-04  1.568048E-04
  1.577456E-04  1.586921E-04  1.596442E-04  1.606021E-04  1.615657E-04  1.625351E-04  1.635103E-04  1.644914E-04
  1.654783E-04  1.664712E-04  1.674700E-04  1.684749E-04  1.694857E-04  1.705026E-04  1.715256E-04  1.725548E-04
  1.735901E-04  1.746317E-04  1.756794E-04  1.767335E-04  1.777939E-04  1.788607E-04  1.799339E-04  1.810135E-04
  1.820995E-04  1.831921E-04  1.842913E-04  1.853970E-04  1.865094E-04  1.876285E-04  1.887542E-04  1.898868E-04
  1.910261E-04  1.921722E-04  1.933253E-04  1.944852E-04  1.956521E-04  1.968261E-04  1.980070E-04  1.991951E-04
  2.003902E-04  2.015926E-04  2.028021E-04  2.040189E-04  2.052431E-04  2.064745E-04  2.077134E-04  2.089596E-04
  2.102134E-04  2.114747E-04  2.127435E-04  2.140200E-04  2.153041E-04  2.165959E-04  2.178955E-04  2.192029E-04
  2.205181E-04  2.218412E-04  2.231722E-04  2.245113E-04  2.258584E-04  2.272135E-04  2.285768E-04  2.299482E-04
  2.313279E-04  2.327159E-04  2.341122E-04  2.355169E-04  2.369300E-04  2.383515E-04  2.397817E-04  2.412203E-04
  2.426677E-04  2.441237E-04  2.455884E-04  2.470619E-04  2.485443E-04  2.500356E-04  2.515358E-04  2.530450E-04
  2.545633E-04  2.560907E-04  2.576272E-04  2.591730E-04  2.607280E-04  2.622924E-04  2.638661E-04  2.654493E-04
  2.670420E-04  2.686443E-04  2.702561E-04  2.718777E-04  2.735089E-04  2.751500E-04  2.768009E-04  2.784617E-04
  2.801325E-04  2.818133E-04  2.835041E-04  2.852052E-04  2.869164E-04  2.886379E-04  2.903697E-04  2.921119E-04
  2.938646E-04  2.956278E-04  2.974016E-04  2.991860E-04  3.009811E-04  3.027870E-04  3.046037E-04  3.064313E-04
  3.082699E-04  3.101195E-04  3.119803E-04  3.138521E-04  3.157353E-04  3.176297E-04  3.195354E-04  3.214527E-04
  3.233814E-04  3.253217E-04  3.272736E-04  3.292372E-04  3.312127E-04  3.331999E-04  3.351991E-04  3.372103E-04
  3.392336E-04  3.412690E-04  3.433166E-04  3.453765E-04  3.474488E-04  3.495335E-04  3.516307E-04  3.537404E-04
  3.558629E-04  3.579981E-04  3.601460E-04  3.623069E-04  3.644808E-04  3.666676E-04  3.688677E-04  3.710809E-04
  3.733073E-04  3.755472E-04  3.778005E-04  3.800673E-04  3.823477E-04  3.846418E-04  3.869496E-04  3.892713E-04
  3.916069E-04  3.939566E-04  3.963203E-04  3.986982E-04  4.010904E-04  4.034970E-04  4.059180E-04  4.083535E-04
  4.108036E-04  4.132684E-04  4.157480E-04  4.182425E-04  4.207520E-04  4.232765E-04  4.258161E-04  4.283710E-04
  4.309413E-04  4.335269E-04  4.361281E-04  4.387448E-04  4.413773E-04  4.440256E-04  4.466897E-04  4.493699E-04
  4.520661E-04  4.547785E-04  4.575071E-04  4.602522E-04  4.630137E-04  4.657918E-04  4.685865E-04  4.713980E-04
  4.742264E-04  4.770718E-04  4.799342E-04  4.828138E-04  4.857107E-04  4.886250E-04  4.915567E-04  4.945061E-04
  4.974731E-04  5.004579E-04  5.034607E-04  5.064815E-04  5.095203E-04  5.125775E-04  5.156529E-04  5.187468E-04
  5.218593E-04  5.249905E-04  5.281404E-04  5.313093E-04  5.344971E-04  5.377041E-04  5.409303E-04  5.441759E-04
  5.474410E-04  5.507256E-04  5.540300E-04  5.573542E-04  5.606983E-04  5.640625E-04  5.674468E-04  5.708515E-04
  5.742766E-04  5.777223E-04  5.811886E-04  5.846758E-04  5.881838E-04  5.917129E-04  5.952632E-04  5.988348E-04
  6.024278E-04  6.060423E-04  6.096786E-04  6.133367E-04  6.170167E-04  6.207188E-04  6.244431E-04  6.281898E-04
  6.319589E-04  6.357507E-04  6.395652E-04  6.434026E-04  6.472630E-04  6.511465E-04  6.550534E-04  6.589837E-04
  6.629376E-04  6.669153E-04  6.709168E-04  6.749423E-04  6.789919E-04  6.830659E-04  6.871643E-04  6.912872E-04
  6.954350E-04  6.996076E-04  7.038052E-04  7.080281E-04  7.122762E-04  7.165499E-04  7.208492E-04  7.251743E-04
  7.295253E-04  7.339025E-04  7.383059E-04  7.427357E-04  7.471921E-04  7.516753E-04  7.561853E-04  7.607225E-04
  7.652868E-04  7.698785E-04  7.744978E-04  7.791448E-04  7.838196E-04  7.885226E-04  7.932537E-04  7.980132E-04
  8.028013E-04  8.076181E-04  8.124638E-04  8.173386E-04  8.222426E-04  8.271761E-04  8.321391E-04  8.371320E-04
  8.421548E-04  8.472077E-04  8.522909E-04  8.574047E-04  8.625491E-04  8.677244E-04  8.729308E-04  8.781683E-04
  8.834373E-04  8.887380E-04  8.940704E-04  8.994348E-04  9.048314E-04  9.102604E-04  9.157220E-04  9.212163E-04
  9.267436E-04  9.323041E-04  9.378979E-04  9.435253E-04  9.491864E-04  9.548816E-04  9.606108E-04  9.663745E-04
  9.721728E-04  9.780058E-04  9.838738E-04  9.897771E-04  9.957157E-04  1.001690E-03  1.007700E-03  1.013746E-03
  1.019829E-03  1.025948E-03  1.032104E-03  1.038296E-03  1.044526E-03  1.050793E-03  1.057098E-03  1.063440E-03
  1.069821E-03  1.076240E-03  1.082697E-03  1.089194E-03  1.095729E-03  1.102303E-03  1.108917E-03  1.115570E-03
  1.122264E-03  1.128997E-03  1.135771E-03  1.142586E-03  1.149442E-03  1.156338E-03  1.163276E-03  1.170256E-03
  1.177277E-03  1.184341E-03  1.191447E-03  1.198596E-03  1.205787E-03  1.213022E-03  1.220300E-03  1.227622E-03
  1.234988E-03  1.242398E-03  1.249852E-03  1.257351E-03  1.264895E-03  1.272485E-03  1.280120E-03  1.287800E-03
  1.295527E-03  1.303300E-03  1.311120E-03  1.318987E-03  1.326901E-03  1.334862E-03  1.342871E-03  1.350929E-03
  1.359034E-03  1.367188E-03  1.375391E-03  1.383644E-03  1.391946E-03  1.400297E-03  1.408699E-03  1.417151E-03
  1.425654E-03  1.434208E-03  1.442813E-03  1.451470E-03  1.460179E-03  1.468940E-03  1.477754E-03  1.486620E-03
  1.495540E-03  1.504513E-03  1.513540E-03  1.522622E-03  1.531757E-03  1.540948E-03  1.550194E-03  1.559495E-03
  1.568852E-03  1.578265E-03  1.587734E-03  1.597261E-03  1.606844E-03  1.616485E-03  1.626184E-03  1.635942E-03
  1.645757E-03  1.655632E-03  1.665565E-03  1.675559E-03  1.685612E-03  1.695726E-03  1.705900E-03  1.716136E-03
  1.726432E-03  1.736791E-03  1.747212E-03  1.757695E-03  1.768241E-03  1.778851E-03  1.789524E-03  1.800261E-03
  1.811063E-03  1.821929E-03  1.832860E-03  1.843858E-03  1.854921E-03  1.866050E-03  1.877247E-03  1.888510E-03
  1.899841E-03  1.911240E-03  1.922708E-03  1.934244E-03  1.945849E-03  1.957524E-03  1.969270E-03  1.981085E-03
  1.992972E-03  2.004930E-03  2.016959E-03  2.029061E-03  2.041235E-03  2.053483E-03  2.065804E-03  2.078198E-03
  2.090668E-03  2.103212E-03  2.115831E-03  2.128526E-03  2.141297E-03  2.154145E-03  2.167070E-03  2.180072E-03
  2.193152E-03  2.206311E-03  2.219549E-03  2.232867E-03  2.246264E-03  2.259741E-03  2.273300E-03  2.286940E-03
  2.300661E-03  2.314465E-03  2.328352E-03  2.342322E-03  2.356376E-03  2.370514E-03  2.384737E-03  2.399046E-03
  2.413440E-03  2.427921E-03  2.442488E-03  2.457143E-03  2.471886E-03  2.486717E-03  2.501638E-03  2.516647E-03
  2.531747E-03  2.546938E-03  2.562219E-03  2.577593E-03  2.593058E-03  2.608617E-03  2.624268E-03  2.640014E-03
  2.655854E-03  2.671789E-03  2.687820E-03  2.703947E-03  2.720171E-03  2.736492E-03  2.752911E-03  2.769428E-03
  2.786045E-03  2.802761E-03  2.819577E-03  2.836495E-03  2.853514E-03  2.870635E-03  2.887859E-03  2.905186E-03
  2.922617E-03  2.940153E-03  2.957794E-03  2.975540E-03  2.993394E-03  3.011354E-03  3.029422E-03  3.047599E-03
  3.065884E-03  3.084279E-03  3.102785E-03  3.121402E-03  3.140130E-03  3.158971E-03  3.177925E-03  3.196992E-03
  3.216174E-03  3.235471E-03  3.254884E-03  3.274414E-03  3.294060E-03  3.313824E-03  3.333707E-03  3.353710E-03
  3.373832E-03  3.394075E-03  3.414439E-03  3.434926E-03  3.455536E-03  3.476269E-03  3.497126E-03  3.518109E-03
  3.539218E-03  3.560453E-03  3.581816E-03  3.603307E-03  3.624927E-03  3.646676E-03  3.668556E-03  3.690567E-03
  3.712711E-03  3.734987E-03  3.757397E-03  3.779941E-03  3.802621E-03  3.825437E-03  3.848389E-03  3.871480E-03
  3.894709E-03  3.918077E-03  3.941585E-03  3.965235E-03  3.989026E-03  4.012960E-03  4.037038E-03  4.061260E-03
  4.085628E-03  4.110142E-03  4.134803E-03  4.159611E-03  4.184569E-03  4.209677E-03  4.234935E-03  4.260344E-03
  4.285906E-03  4.311622E-03  4.337491E-03  4.363516E-03  4.389697E-03  4.416036E-03  4.442532E-03  4.469187E-03
  4.496002E-03  4.522978E-03  4.550116E-03  4.577417E-03  4.604881E-03  4.632511E-03  4.660306E-03  4.688267E-03
  4.716397E-03  4.744695E-03  4.773164E-03  4.801803E-03  4.830613E-03  4.859597E-03  4.888755E-03  4.918087E-03
  4.947596E-03  4.977281E-03  5.007145E-03  5.037188E-03  5.067411E-03  5.097815E-03  5.128402E-03  5.159173E-03
  5.190128E-03  5.221269E-03  5.252596E-03  5.284112E-03  5.315816E-03  5.347711E-03  5.379798E-03  5.412076E-03
  5.444549E-03  5.477216E-03  5.510079E-03  5.543140E-03  5.576399E-03  5.609857E-03  5.643516E-03  5.677377E-03
  5.711442E-03  5.745710E-03  5.780185E-03  5.814866E-03  5.849755E-03  5.884853E-03  5.920162E-03  5.955683E-03
  5.991418E-03  6.027366E-03  6.063530E-03  6.099911E-03  6.136511E-03  6.173330E-03  6.210370E-03  6.247632E-03
  6.285118E-03  6.322829E-03  6.360766E-03  6.398930E-03  6.437324E-03  6.475948E-03  6.514803E-03  6.553892E-03
  6.593216E-03  6.632775E-03  6.672572E-03  6.712607E-03  6.752883E-03  6.793400E-03  6.834160E-03  6.875165E-03
  6.916416E-03  6.957915E-03  6.999662E-03  7.041660E-03  7.083910E-03  7.126414E-03  7.169172E-03  7.212187E-03
  7.255460E-03  7.298993E-03  7.342787E-03  7.386844E-03  7.431165E-03  7.475752E-03  7.520606E-03  7.565730E-03
  7.611124E-03  7.656791E-03  7.702732E-03  7.748948E-03  7.795442E-03  7.842215E-03  7.889268E-03  7.936603E-03
  7.984223E-03  8.032128E-03  8.080321E-03  8.128803E-03  8.177576E-03  8.226641E-03  8.276001E-03  8.325657E-03
  8.375611E-03  8.425865E-03  8.476420E-03  8.527279E-03  8.578442E-03  8.629913E-03  8.681692E-03  8.733782E-03
  8.786185E-03  8.838902E-03  8.891936E-03  8.945287E-03  8.998959E-03  9.052953E-03  9.107271E-03  9.161914E-03
  9.216886E-03  9.272187E-03  9.327820E-03  9.383787E-03  9.440090E-03  9.496730E-03  9.553711E-03  9.611033E-03
  9.668699E-03  9.726711E-03  9.785072E-03  9.843782E-03  9.902845E-03  9.962262E-03  1.002204E-02  1.008217E-02
  1.014266E-02  1.020352E-02  1.026474E-02  1.032633E-02  1.038828E-02  1.045061E-02  1.051332E-02  1.057640E-02
  1.063986E-02  1.070369E-02  1.076792E-02  1.083252E-02  1.089752E-02  1.096290E-02  1.102868E-02  1.109485E-02
  1.116142E-02  1.122839E-02  1.129576E-02  1.136354E-02  1.143172E-02  1.150031E-02  1.156931E-02  1.163873E-02
  1.170856E-02  1.177881E-02  1.184948E-02  1.192058E-02  1.199210E-02  1.206406E-02  1.213644E-02  1.220926E-02
  1.228251E-02  1.235621E-02  1.243035E-02  1.250493E-02  1.257996E-02  1.265544E-02  1.273137E-02  1.280776E-02
  1.288461E-02  1.296191E-02  1.303968E-02  1.311792E-02  1.319663E-02  1.327581E-02  1.335546E-02  1.343560E-02
  1.351621E-02  1.359731E-02  1.367889E-02  1.376097E-02  1.384353E-02  1.392659E-02  1.401015E-02  1.409421E-02
  1.417878E-02  1.426385E-02  1.434943E-02  1.443553E-02  1.452214E-02  1.460928E-02  1.469693E-02  1.478511E-02
  1.487382E-02  1.496307E-02  1.505285E-02  1.514316E-02  1.523402E-02  1.532543E-02  1.541738E-02  1.550988E-02
  1.560294E-02  1.569656E-02  1.579074E-02  1.588548E-02  1.598080E-02  1.607668E-02  1.617314E-02  1.627018E-02
  1.636780E-02  1.646601E-02  1.656480E-02  1.666419E-02  1.676418E-02  1.686476E-02  1.696595E-02  1.706775E-02
  1.717015E-02  1.727318E-02  1.737681E-02  1.748107E-02  1.758596E-02  1.769148E-02  1.779763E-02  1.790441E-02
  1.801184E-02  1.811991E-02  1.822863E-02  1.833800E-02  1.844803E-02  1.855872E-02  1.867007E-02  1.878209E-02
  1.889478E-02  1.900815E-02  1.912220E-02  1.923693E-02  1.935235E-02  1.946847E-02  1.958528E-02  1.970279E-02
  1.982101E-02  1.993993E-02  2.005957E-02  2.017993E-02  2.030101E-02  2.042282E-02  2.054535E-02  2.066863E-02
  2.079264E-02  2.091739E-02  2.104290E-02  2.116915E-02  2.129617E-02  2.142395E-02  2.155249E-02  2.168181E-02
  2.181190E-02  2.194277E-02  2.207442E-02  2.220687E-02  2.234011E-02  2.247415E-02  2.260900E-02  2.274465E-02
  2.288112E-02  2.301841E-02  2.315652E-02  2.329546E-02  2.343523E-02  2.357584E-02  2.371729E-02  2.385960E-02
  2.400276E-02  2.414677E-02  2.429165E-02  2.443740E-02  2.458403E-02  2.473153E-02  2.487992E-02  2.502920E-02
  2.517938E-02  2.533045E-02  2.548243E-02  2.563533E-02  2.578914E-02  2.594388E-02  2.609954E-02  2.625614E-02
  2.641367E-02  2.657216E-02  2.673159E-02  2.689198E-02  2.705333E-02  2.721565E-02  2.737894E-02  2.754322E-02
  2.770848E-02  2.787473E-02  2.804198E-02  2.821023E-02  2.837949E-02  2.854977E-02  2.872106E-02  2.889339E-02
  2.906675E-02  2.924115E-02  2.941660E-02  2.959310E-02  2.977066E-02  2.994928E-02  3.012898E-02  3.030975E-02
  3.049161E-02  3.067456E-02  3.085861E-02  3.104376E-02  3.123002E-02  3.141740E-02  3.160590E-02  3.179554E-02
  3.198631E-02  3.217823E-02  3.237130E-02  3.256553E-02  3.276092E-02  3.295749E-02  3.315523E-02  3.335416E-02
  3.355429E-02  3.375561E-02  3.395815E-02  3.416190E-02  3.436687E-02  3.457307E-02  3.478051E-02  3.498919E-02
  3.519913E-02  3.541032E-02  3.562278E-02  3.583652E-02  3.605154E-02  3.626785E-02  3.648545E-02  3.670437E-02
  3.692459E-02  3.714614E-02  3.736902E-02  3.759323E-02  3.781879E-02  3.804570E-02  3.827398E-02  3.850362E-02
  3.873464E-02  3.896705E-02  3.920085E-02  3.943606E-02  3.967268E-02  3.991071E-02  4.015018E-02  4.039108E-02
  4.063342E-02  4.087722E-02  4.112249E-02  4.136922E-02  4.161744E-02  4.186714E-02  4.211835E-02  4.237106E-02
  4.262528E-02  4.288103E-02  4.313832E-02  4.339715E-02  4.365753E-02  4.391948E-02  4.418299E-02  4.444809E-02
  4.471478E-02  4.498307E-02  4.525297E-02  4.552449E-02  4.579763E-02  4.607242E-02  4.634885E-02  4.662695E-02
  4.690671E-02  4.718815E-02  4.747128E-02  4.775610E-02  4.804264E-02  4.833090E-02  4.862088E-02  4.891261E-02
  4.920608E-02  4.950132E-02  4.979833E-02  5.009712E-02  5.039770E-02  5.070009E-02  5.100429E-02  5.131031E-02
  5.161818E-02  5.192788E-02  5.223945E-02  5.255289E-02  5.286821E-02  5.318541E-02  5.350453E-02  5.382555E-02
  5.414851E-02  5.447340E-02  5.480024E-02  5.512904E-02  5.545981E-02  5.579257E-02  5.612733E-02  5.646409E-02
  5.680288E-02  5.714369E-02  5.748656E-02  5.783148E-02  5.817847E-02  5.852754E-02  5.887870E-02  5.923197E-02
  5.958737E-02  5.994489E-02  6.030456E-02  6.066639E-02  6.103038E-02  6.139657E-02  6.176495E-02  6.213554E-02
  6.250835E-02  6.288340E-02  6.326070E-02  6.364026E-02  6.402211E-02  6.440624E-02  6.479268E-02  6.518143E-02
  6.557252E-02  6.596596E-02  6.636175E-02  6.675992E-02  6.716048E-02  6.756344E-02  6.796882E-02  6.837664E-02
  6.878690E-02  6.919962E-02  6.961482E-02  7.003251E-02  7.045270E-02  7.087542E-02  7.130067E-02  7.172847E-02
  7.215884E-02  7.259180E-02  7.302735E-02  7.346551E-02  7.390630E-02  7.434974E-02  7.479584E-02  7.524462E-02
  7.569608E-02  7.615026E-02  7.660716E-02  7.706680E-02  7.752921E-02  7.799438E-02  7.846235E-02  7.893312E-02
  7.940672E-02  7.988316E-02  8.036246E-02  8.084463E-02  8.132970E-02  8.181768E-02  8.230859E-02  8.280244E-02
  8.329925E-02  8.379905E-02  8.430184E-02  8.480765E-02  8.531650E-02  8.582840E-02  8.634337E-02  8.686143E-02
  8.738260E-02  8.790689E-02  8.843433E-02  8.896494E-02  8.949873E-02  9.003572E-02  9.057594E-02  9.111939E-02
  9.166611E-02  9.221611E-02  9.276940E-02  9.332602E-02  9.388597E-02  9.444929E-02  9.501599E-02  9.558608E-02
  9.615960E-02  9.673656E-02  9.731698E-02  9.790088E-02  9.848828E-02  9.907921E-02  9.967369E-02  1.002717E-01
  1.008734E-01  1.014786E-01  1.020875E-01  1.027000E-01  1.033162E-01  1.039361E-01  1.045597E-01  1.051871E-01
  1.058182E-01  1.064531E-01  1.070918E-01  1.077344E-01  1.083808E-01  1.090311E-01  1.096852E-01  1.103434E-01
  1.110054E-01  1.116715E-01  1.123415E-01  1.130155E-01  1.136936E-01  1.143758E-01  1.150620E-01  1.157524E-01
  1.164469E-01  1.171456E-01  1.178485E-01  1.185556E-01  1.192669E-01  1.199825E-01  1.207024E-01  1.214266E-01
  1.221552E-01  1.228881E-01  1.236254E-01  1.243672E-01  1.251134E-01  1.258641E-01  1.266193E-01  1.273790E-01
  1.281432E-01  1.289121E-01  1.296856E-01  1.304637E-01  1.312465E-01  1.320340E-01  1.328262E-01  1.336231E-01
  1.344249E-01  1.352314E-01  1.360428E-01  1.368590E-01  1.376802E-01  1.385063E-01  1.393373E-01  1.401733E-01
  1.410144E-01  1.418605E-01  1.427116E-01  1.435679E-01  1.444293E-01  1.452959E-01  1.461677E-01  1.470447E-01
  1.479269E-01  1.488145E-01  1.497074E-01  1.506056E-01  1.515093E-01  1.524183E-01  1.533328E-01  1.542528E-01
  1.551783E-01  1.561094E-01  1.570461E-01  1.579883E-01  1.589363E-01  1.598899E-01  1.608492E-01  1.618143E-01
  1.627852E-01  1.637619E-01  1.647445E-01  1.657330E-01  1.667274E-01  1.677277E-01  1.687341E-01  1.697465E-01
  1.707650E-01  1.717896E-01  1.728203E-01  1.738572E-01  1.749004E-01  1.759498E-01  1.770055E-01  1.780675E-01
  1.791359E-01  1.802107E-01  1.812920E-01  1.823797E-01  1.834740E-01  1.845749E-01  1.856823E-01  1.867964E-01
  1.879172E-01  1.890447E-01  1.901789E-01  1.913200E-01  1.924679E-01  1.936228E-01  1.947845E-01  1.959532E-01
  1.971289E-01  1.983117E-01  1.995016E-01  2.006986E-01  2.019028E-01  2.031142E-01  2.043329E-01  2.055589E-01
  2.067922E-01  2.080330E-01  2.092812E-01  2.105368E-01  2.118001E-01  2.130709E-01  2.143493E-01  2.156354E-01
  2.169292E-01  2.182308E-01  2.195402E-01  2.208574E-01  2.221825E-01  2.235156E-01  2.248567E-01  2.262059E-01
  2.275631E-01  2.289285E-01  2.303021E-01  2.316839E-01  2.330740E-01  2.344724E-01  2.358793E-01  2.372945E-01
  2.387183E-01  2.401506E-01  2.415915E-01  2.430411E-01  2.444993E-01  2.459663E-01  2.474421E-01  2.489268E-01
  2.504203E-01  2.519228E-01  2.534344E-01  2.549550E-01  2.564847E-01  2.580236E-01  2.595718E-01  2.611292E-01
  2.626960E-01  2.642721E-01  2.658578E-01  2.674529E-01  2.690576E-01  2.706720E-01  2.722960E-01  2.739298E-01
  2.755734E-01  2.772268E-01  2.788902E-01  2.805635E-01  2.822469E-01  2.839404E-01  2.856440E-01  2.873579E-01
  2.890820E-01  2.908165E-01  2.925614E-01  2.943168E-01  2.960827E-01  2.978592E-01  2.996463E-01  3.014442E-01
  3.032529E-01  3.050724E-01  3.069028E-01  3.087443E-01  3.105967E-01  3.124603E-01  3.143351E-01  3.162211E-01
  3.181184E-01  3.200271E-01  3.219473E-01  3.238790E-01  3.258222E-01  3.277772E-01  3.297438E-01  3.317223E-01
  3.337126E-01  3.357149E-01  3.377292E-01  3.397556E-01  3.417941E-01  3.438449E-01  3.459079E-01  3.479834E-01
  3.500713E-01  3.521717E-01  3.542847E-01  3.564104E-01  3.585489E-01  3.607002E-01  3.628644E-01  3.650416E-01
  3.672318E-01  3.694352E-01  3.716518E-01  3.738817E-01  3.761250E-01  3.783818E-01  3.806521E-01  3.829360E-01
  3.852336E-01  3.875450E-01  3.898703E-01  3.922095E-01  3.945628E-01  3.969301E-01  3.993117E-01  4.017076E-01
  4.041178E-01  4.065425E-01  4.089818E-01  4.114357E-01  4.139043E-01  4.163877E-01  4.188861E-01  4.213994E-01
  4.239278E-01  4.264713E-01  4.290302E-01  4.316043E-01  4.341940E-01  4.367991E-01  4.394199E-01  4.420564E-01
  4.447088E-01  4.473770E-01  4.500613E-01  4.527617E-01  4.554782E-01  4.582111E-01  4.609604E-01  4.637261E-01
  4.665085E-01  4.693075E-01  4.721234E-01  4.749561E-01  4.778059E-01  4.806727E-01  4.835567E-01  4.864581E-01
  4.893768E-01  4.923131E-01  4.952670E-01  4.982386E-01  5.012280E-01  5.042354E-01  5.072608E-01  5.103043E-01
  5.133662E-01  5.164464E-01  5.195450E-01  5.226623E-01  5.257983E-01  5.289531E-01  5.321268E-01  5.353196E-01
  5.385315E-01  5.417627E-01  5.450132E-01  5.482833E-01  5.515730E-01  5.548825E-01  5.582117E-01  5.615610E-01
  5.649304E-01  5.683200E-01  5.717299E-01  5.751603E-01  5.786112E-01  5.820829E-01  5.855754E-01  5.890888E-01
  5.926234E-01  5.961791E-01  5.997562E-01  6.033547E-01  6.069749E-01  6.106167E-01  6.142804E-01  6.179661E-01
  6.216739E-01  6.254039E-01  6.291564E-01  6.329313E-01  6.367289E-01  6.405493E-01  6.443925E-01  6.482589E-01
  6.521485E-01  6.560613E-01  6.599977E-01  6.639577E-01  6.679414E-01  6.719491E-01  6.759808E-01  6.800367E-01
  6.841169E-01  6.882216E-01  6.923509E-01  6.965050E-01  7.006841E-01  7.048882E-01  7.091175E-01  7.133722E-01
  7.176524E-01  7.219583E-01  7.262901E-01  7.306478E-01  7.350317E-01  7.394419E-01  7.438786E-01  7.483418E-01
  7.528319E-01  7.573489E-01  7.618930E-01  7.664643E-01  7.710631E-01  7.756895E-01  7.803436E-01  7.850257E-01
  7.897359E-01  7.944743E-01  7.992411E-01  8.040366E-01  8.088608E-01  8.137139E-01  8.185962E-01  8.235078E-01
  8.284489E-01  8.334195E-01  8.384201E-01  8.434506E-01  8.485113E-01  8.536024E-01  8.587240E-01  8.638763E-01
  8.690596E-01  8.742739E-01  8.795196E-01  8.847967E-01  8.901055E-01  8.954461E-01  9.008188E-01  9.062237E-01
  9.116610E-01  9.171310E-01  9.226338E-01  9.281696E-01  9.337386E-01  9.393410E-01  9.449771E-01  9.506469E-01
  9.563508E-01  9.620889E-01  9.678615E-01  9.736686E-01  9.795106E-01  9.853877E-01  9.913000E-01  9.972478E-01
  1.003231E+00  1.009251E+00  1.015306E+00  1.021398E+00  1.027526E+00  1.033692E+00  1.039894E+00  1.046133E+00
  1.052410E+00  1.058724E+00  1.065077E+00  1.071467E+00  1.077896E+00  1.084363E+00  1.090870E+00  1.097415E+00
  1.103999E+00  1.110623E+00  1.117287E+00  1.123991E+00  1.130735E+00  1.137519E+00  1.144344E+00  1.151210E+00
  1.158117E+00  1.165066E+00  1.172057E+00  1.179089E+00  1.186163E+00  1.193280E+00  1.200440E+00  1.207643E+00
  1.214889E+00  1.222178E+00  1.229511E+00  1.236888E+00  1.244309E+00  1.251775E+00  1.259286E+00  1.266842E+00
  1.274443E+00  1.282089E+00  1.289782E+00  1.297521E+00  1.305306E+00  1.313138E+00  1.321016E+00  1.328942E+00
  1.336916E+00  1.344938E+00  1.353007E+00  1.361125E+00  1.369292E+00  1.377508E+00  1.385773E+00  1.394087E+00
  1.402452E+00  1.410867E+00  1.419332E+00  1.427848E+00  1.436415E+00  1.445033E+00  1.453704E+00  1.462426E+00
  1.471200E+00  1.480028E+00  1.488908E+00  1.497841E+00  1.506828E+00  1.515869E+00  1.524964E+00  1.534114E+00
  1.543319E+00  1.552579E+00  1.561894E+00  1.571266E+00  1.580693E+00  1.590177E+00  1.599719E+00  1.609317E+00
  1.618973E+00  1.628687E+00  1.638459E+00  1.648289E+00  1.658179E+00  1.668128E+00  1.678137E+00  1.688206E+00
  1.698335E+00  1.708525E+00  1.718776E+00  1.729089E+00  1.739463E+00  1.749900E+00  1.760400E+00  1.770962E+00
  1.781588E+00  1.792277E+00  1.803031E+00  1.813849E+00  1.824732E+00  1.835681E+00  1.846695E+00  1.857775E+00
  1.868922E+00  1.880135E+00  1.891416E+00  1.902764E+00  1.914181E+00  1.925666E+00  1.937220E+00  1.948843E+00
  1.960536E+00  1.972300E+00  1.984133E+00  1.996038E+00  2.008015E+00  2.020063E+00  2.032183E+00  2.044376E+00
  2.056642E+00  2.068982E+00  2.081396E+00  2.093884E+00  2.106448E+00  2.119086E+00  2.131801E+00  2.144592E+00
  2.157459E+00  2.170404E+00  2.183426E+00  2.196527E+00  2.209706E+00  2.222964E+00  2.236302E+00  2.249720E+00
  2.263218E+00  2.276798E+00  2.290458E+00  2.304201E+00  2.318026E+00  2.331935E+00  2.345926E+00  2.360002E+00
  2.374162E+00  2.388407E+00  2.402737E+00  2.417154E+00  2.431657E+00  2.446246E+00  2.460924E+00  2.475689E+00
  2.490544E+00  2.505487E+00  2.520520E+00  2.535643E+00  2.550857E+00  2.566162E+00  2.581559E+00  2.597048E+00
  2.612631E+00  2.628306E+00  2.644076E+00  2.659941E+00  2.675900E+00  2.691956E+00  2.708107E+00  2.724356E+00
  2.740702E+00  2.757146E+00  2.773689E+00  2.790331E+00  2.807073E+00  2.823916E+00  2.840859E+00  2.857904E+00
  2.875052E+00  2.892302E+00  2.909656E+00  2.927114E+00  2.944677E+00  2.962345E+00  2.980119E+00  2.997999E+00
  3.015987E+00  3.034083E+00  3.052288E+00  3.070602E+00  3.089025E+00  3.107559E+00  3.126205E+00  3.144962E+00
  3.163832E+00  3.182815E+00  3.201912E+00  3.221123E+00  3.240450E+00  3.259893E+00  3.279452E+00  3.299129E+00
  3.318923E+00  3.338837E+00  3.358870E+00  3.379023E+00  3.399297E+00  3.419693E+00  3.440211E+00  3.460853E+00
  3.481618E+00  3.502507E+00  3.523522E+00  3.544664E+00  3.565931E+00  3.587327E+00  3.608851E+00  3.630504E+00
  3.652287E+00  3.674201E+00  3.696246E+00  3.718424E+00  3.740734E+00  3.763179E+00  3.785758E+00  3.808472E+00
  3.831323E+00  3.854311E+00  3.877437E+00  3.900701E+00  3.924106E+00  3.947650E+00  3.971336E+00  3.995164E+00
  4.019135E+00  4.043250E+00  4.067509E+00  4.091915E+00  4.116466E+00  4.141165E+00  4.166012E+00  4.191008E+00
  4.216154E+00  4.241451E+00  4.266900E+00  4.292501E+00  4.318256E+00  4.344165E+00  4.370230E+00  4.396452E+00
  4.422831E+00  4.449368E+00  4.476064E+00  4.502920E+00  4.529938E+00  4.557117E+00  4.584460E+00  4.611967E+00
  4.639639E+00  4.667476E+00  4.695481E+00  4.723654E+00  4.751996E+00  4.780508E+00  4.809191E+00  4.838046E+00
  4.867074E+00  4.896277E+00  4.925655E+00  4.955209E+00  4.984940E+00  5.014849E+00  5.044939E+00  5.075208E+00
  5.105659E+00  5.136293E+00  5.167111E+00  5.198114E+00  5.229302E+00  5.260678E+00  5.292242E+00  5.323996E+00