<UPF version="2.0.1">
  <PP_INFO>

 This pseudopotential file has been produced using the code
 ONCVPSP  (Optimized Norm-Conservinng Vanderbilt PSeudopotential)
 scalar-relativistic version 4.0.1 06/20/2107 by D. R. Hamann
 The code is available through a link at URL www.mat-simresearch.com.
 Documentation with the package provides a full discription of the
 input data below.


 While it is not required under the terms of the GNU GPL, it is
 suggested that you cite D. R. Hamann, Phys. Rev. B 88, 085117 (2013)
 in any publication using these pseudopotentials.

    <PP_INPUTFILE>
# ATOM AND REFERENCE CONFIGURATION
# atsym  z   nc   nv     iexc    psfile
  Si 14.00    3    2 -116133      upf
#
#   n    l    f        energy (Ha)
    1    0    2.00
    2    0    2.00
    2    1    6.00
    3    0    2.00
    3    1    2.00
#
# PSEUDOPOTENTIAL AND OPTIMIZATION
# lmax
    2
#
#   l,   rc,      ep,       ncon, nbas, qcut
    0   1.90000   0.00000    4    9   4.85537
    1   1.90000   0.00000    4    7   7.50000
    2   1.90000   0.03000    4    8   7.10000
#
# LOCAL POTENTIAL
# lloc, lpopt,  rc(5),   dvloc0
    4    5   1.64307      0.00000
#
# VANDERBILT-KLEINMAN-BYLANDER PROJECTORs
# l, nproj, debl
    0    2   2.50000
    1    2   2.50000
    2    2   1.50000
#
# MODEL CORE CHARGE
# icmod, fcfact, rcfact
    3   4.00000   1.30000
#
# LOG DERIVATIVE ANALYSIS
# epsh1, epsh2, depsh
  -12.00   12.00    0.02
#
# OUTPUT GRID (using internal log mesh)

# mmax =   2348, rmax =   4.4700E+01
#
# TEST CONFIGURATIONS
# ncnf
    0
# nvcnf
#   n    l    f
    </PP_INPUTFILE>
  </PP_INFO>
  <!--                               -->
  <!-- END OF HUMAN READABLE SECTION -->
  <!--                               -->
    <PP_HEADER
       generated="Generated using ONCVPSP code by D. R. Hamann"
       author="anonymous"
       date="260127"
       comment=""
       element="Si"
       pseudo_type="NC"
       relativistic="scalar"
       is_ultrasoft="F"
       is_paw="F"
       is_coulomb="F"
       has_so="F"
       has_wfc="F"
       has_gipaw="T"
       core_correction="T"
       functional="PBESOL"
       z_valence="    4.00"
       total_psenergy="  -7.50977715291E+00"
       rho_cutoff="   4.46995054610E+01"
       l_max="2"
       l_local="-1"
       mesh_size="  2348"
       number_of_wfc="2"
       number_of_proj="6"/>
 <PP_MESH dx="  5.98207167754747E-03" mesh="2348" xmin=" -1.02399597891573E+01" rmax="  4.46995054610246E+01" zmesh="1.0">
   <PP_R type="real"  size="  2348" columns="8">
  3.571429E-05  3.592857E-05  3.614414E-05  3.636101E-05  3.657917E-05  3.679865E-05  3.701944E-05  3.724156E-05
  3.746501E-05  3.768980E-05  3.791594E-05  3.814343E-05  3.837229E-05  3.860253E-05  3.883414E-05  3.906715E-05
  3.930155E-05  3.953736E-05  3.977458E-05  4.001323E-05  4.025331E-05  4.049483E-05  4.073780E-05  4.098222E-05
  4.122812E-05  4.147549E-05  4.172434E-05  4.197469E-05  4.222653E-05  4.247989E-05  4.273477E-05  4.299118E-05
  4.324913E-05  4.350862E-05  4.376967E-05  4.403229E-05  4.429649E-05  4.456226E-05  4.482964E-05  4.509862E-05
  4.536921E-05  4.564142E-05  4.591527E-05  4.619076E-05  4.646791E-05  4.674672E-05  4.702720E-05  4.730936E-05
  4.759322E-05  4.787877E-05  4.816605E-05  4.845504E-05  4.874577E-05  4.903825E-05  4.933248E-05  4.962847E-05
  4.992624E-05  5.022580E-05  5.052716E-05  5.083032E-05  5.113530E-05  5.144211E-05  5.175076E-05  5.206127E-05
  5.237364E-05  5.268788E-05  5.300401E-05  5.332203E-05  5.364196E-05  5.396381E-05  5.428760E-05  5.461332E-05
  5.494100E-05  5.527065E-05  5.560227E-05  5.593589E-05  5.627150E-05  5.660913E-05  5.694879E-05  5.729048E-05
  5.763422E-05  5.798003E-05  5.832791E-05  5.867787E-05  5.902994E-05  5.938412E-05  5.974043E-05  6.009887E-05
  6.045946E-05  6.082222E-05  6.118715E-05  6.155427E-05  6.192360E-05  6.229514E-05  6.266891E-05  6.304493E-05
  6.342320E-05  6.380373E-05  6.418656E-05  6.457168E-05  6.495911E-05  6.534886E-05  6.574095E-05  6.613540E-05
  6.653221E-05  6.693141E-05  6.733299E-05  6.773699E-05  6.814341E-05  6.855227E-05  6.896359E-05  6.937737E-05
  6.979363E-05  7.021240E-05  7.063367E-05  7.105747E-05  7.148382E-05  7.191272E-05  7.234420E-05  7.277826E-05
  7.321493E-05  7.365422E-05  7.409615E-05  7.454072E-05  7.498797E-05  7.543789E-05  7.589052E-05  7.634587E-05
  7.680394E-05  7.726476E-05  7.772835E-05  7.819472E-05  7.866389E-05  7.913587E-05  7.961069E-05  8.008835E-05
  8.056888E-05  8.105230E-05  8.153861E-05  8.202784E-05  8.252001E-05  8.301513E-05  8.351322E-05  8.401430E-05
  8.451839E-05  8.502550E-05  8.553565E-05  8.604886E-05  8.656516E-05  8.708455E-05  8.760705E-05  8.813270E-05
  8.866149E-05  8.919346E-05  8.972862E-05  9.026699E-05  9.080860E-05  9.135345E-05  9.190157E-05  9.245298E-05
  9.300770E-05  9.356574E-05  9.412714E-05  9.469190E-05  9.526005E-05  9.583161E-05  9.640660E-05  9.698504E-05
  9.756695E-05  9.815235E-05  9.874127E-05  9.933371E-05  9.992972E-05  1.005293E-04  1.011325E-04  1.017393E-04
  1.023497E-04  1.029638E-04  1.035816E-04  1.042031E-04  1.048283E-04  1.054573E-04  1.060900E-04  1.067265E-04
  1.073669E-04  1.080111E-04  1.086592E-04  1.093111E-04  1.099670E-04  1.106268E-04  1.112906E-04  1.119583E-04
  1.126300E-04  1.133058E-04  1.139857E-04  1.146696E-04  1.153576E-04  1.160497E-04  1.167460E-04  1.174465E-04
  1.181512E-04  1.188601E-04  1.195733E-04  1.202907E-04  1.210124E-04  1.217385E-04  1.224690E-04  1.232038E-04
  1.239430E-04  1.246866E-04  1.254348E-04  1.261874E-04  1.269445E-04  1.277062E-04  1.284724E-04  1.292432E-04
  1.300187E-04  1.307988E-04  1.315836E-04  1.323731E-04  1.331673E-04  1.339663E-04  1.347701E-04  1.355788E-04
  1.363922E-04  1.372106E-04  1.380339E-04  1.388621E-04  1.396952E-04  1.405334E-04  1.413766E-04  1.422249E-04
  1.430782E-04  1.439367E-04  1.448003E-04  1.456691E-04  1.465431E-04  1.474224E-04  1.483069E-04  1.491967E-04
  1.500919E-04  1.509925E-04  1.518984E-04  1.528098E-04  1.537267E-04  1.546490E-04  1.555769E-04  1.565104E-04
  1.574495E-04  1.583942E-04  1.593445E-04  1.603006E-04  1.612624E-04  1.622300E-04  1.632034E-04  1.641826E-04
  1.651677E-04  1.661587E-04  1.671556E-04  1.681586E-04  1.691675E-04  1.701825E-04  1.712036E-04  1.722308E-04
  1.732642E-04  1.743038E-04  1.753496E-04  1.764017E-04  1.774601E-04  1.785249E-04  1.795960E-04  1.806736E-04
  1.817577E-04  1.828482E-04  1.839453E-04  1.850490E-04  1.861593E-04  1.872762E-04  1.883999E-04  1.895303E-04
  1.906675E-04  1.918115E-04  1.929623E-04  1.941201E-04  1.952848E-04  1.964565E-04  1.976353E-04  1.988211E-04
  2.000140E-04  2.012141E-04  2.024214E-04  2.036359E-04  2.048577E-04  2.060869E-04  2.073234E-04  2.085673E-04
  2.098187E-04  2.110776E-04  2.123441E-04  2.136182E-04  2.148999E-04  2.161893E-04  2.174864E-04  2.187913E-04
  2.201041E-04  2.214247E-04  2.227533E-04  2.240898E-04  2.254343E-04  2.267869E-04  2.281476E-04  2.295165E-04
  2.308936E-04  2.322790E-04  2.336727E-04  2.350747E-04  2.364852E-04  2.379041E-04  2.393315E-04  2.407675E-04
  2.422121E-04  2.436654E-04  2.451273E-04  2.465981E-04  2.480777E-04  2.495662E-04  2.510636E-04  2.525699E-04
  2.540854E-04  2.556099E-04  2.571435E-04  2.586864E-04  2.602385E-04  2.617999E-04  2.633707E-04  2.649510E-04
  2.665407E-04  2.681399E-04  2.697488E-04  2.713672E-04  2.729955E-04  2.746334E-04  2.762812E-04  2.779389E-04
  2.796065E-04  2.812842E-04  2.829719E-04  2.846697E-04  2.863777E-04  2.880960E-04  2.898246E-04  2.915635E-04
  2.933129E-04  2.950728E-04  2.968432E-04  2.986243E-04  3.004160E-04  3.022185E-04  3.040318E-04  3.058560E-04
  3.076912E-04  3.095373E-04  3.113945E-04  3.132629E-04  3.151425E-04  3.170333E-04  3.189355E-04  3.208491E-04
  3.227742E-04  3.247109E-04  3.266592E-04  3.286191E-04  3.305908E-04  3.325744E-04  3.345698E-04  3.365772E-04
  3.385967E-04  3.406283E-04  3.426720E-04  3.447281E-04  3.467964E-04  3.488772E-04  3.509705E-04  3.530763E-04
  3.551948E-04  3.573259E-04  3.594699E-04  3.616267E-04  3.637965E-04  3.659793E-04  3.681751E-04  3.703842E-04
  3.726065E-04  3.748421E-04  3.770912E-04  3.793537E-04  3.816298E-04  3.839196E-04  3.862231E-04  3.885405E-04
  3.908717E-04  3.932170E-04  3.955763E-04  3.979497E-04  4.003374E-04  4.027394E-04  4.051559E-04  4.075868E-04
  4.100323E-04  4.124925E-04  4.149675E-04  4.174573E-04  4.199620E-04  4.224818E-04  4.250167E-04  4.275668E-04
  4.301322E-04  4.327130E-04  4.353093E-04  4.379211E-04  4.405486E-04  4.431919E-04  4.458511E-04  4.485262E-04
  4.512174E-04  4.539247E-04  4.566482E-04  4.593881E-04  4.621444E-04  4.649173E-04  4.677068E-04  4.705130E-04
  4.733361E-04  4.761761E-04  4.790332E-04  4.819074E-04  4.847988E-04  4.877076E-04  4.906339E-04  4.935777E-04
  4.965391E-04  4.995184E-04  5.025155E-04  5.055306E-04  5.085638E-04  5.116151E-04  5.146848E-04  5.177729E-04
  5.208796E-04  5.240049E-04  5.271489E-04  5.303118E-04  5.334936E-04  5.366946E-04  5.399148E-04  5.431543E-04
  5.464132E-04  5.496917E-04  5.529898E-04  5.563078E-04  5.596456E-04  5.630035E-04  5.663815E-04  5.697798E-04
  5.731985E-04  5.766377E-04  5.800975E-04  5.835781E-04  5.870795E-04  5.906020E-04  5.941456E-04  5.977105E-04
  6.012968E-04  6.049045E-04  6.085340E-04  6.121852E-04  6.158583E-04  6.195534E-04  6.232708E-04  6.270104E-04
  6.307724E-04  6.345571E-04  6.383644E-04  6.421946E-04  6.460478E-04  6.499241E-04  6.538236E-04  6.577466E-04
  6.616930E-04  6.656632E-04  6.696572E-04  6.736751E-04  6.777172E-04  6.817835E-04  6.858742E-04  6.899894E-04
  6.941293E-04  6.982941E-04  7.024839E-04  7.066988E-04  7.109390E-04  7.152046E-04  7.194958E-04  7.238128E-04
  7.281557E-04  7.325246E-04  7.369198E-04  7.413413E-04  7.457893E-04  7.502641E-04  7.547657E-04  7.592943E-04
  7.638500E-04  7.684331E-04  7.730437E-04  7.776820E-04  7.823481E-04  7.870422E-04  7.917644E-04  7.965150E-04
  8.012941E-04  8.061019E-04  8.109385E-04  8.158041E-04  8.206989E-04  8.256231E-04  8.305769E-04  8.355603E-04
  8.405737E-04  8.456171E-04  8.506908E-04  8.557950E-04  8.609297E-04  8.660953E-04  8.712919E-04  8.765196E-04
  8.817788E-04  8.870694E-04  8.923919E-04  8.977462E-04  9.031327E-04  9.085515E-04  9.140028E-04  9.194868E-04
  9.250037E-04  9.305537E-04  9.361371E-04  9.417539E-04  9.474044E-04  9.530888E-04  9.588074E-04  9.645602E-04
  9.703476E-04  9.761697E-04  9.820267E-04  9.879188E-04  9.938464E-04  9.998094E-04  1.005808E-03  1.011843E-03
  1.017914E-03  1.024022E-03  1.030166E-03  1.036347E-03  1.042565E-03  1.048820E-03  1.055113E-03  1.061444E-03
  1.067813E-03  1.074219E-03  1.080665E-03  1.087149E-03  1.093672E-03  1.100234E-03  1.106835E-03  1.113476E-03
  1.120157E-03  1.126878E-03  1.133639E-03  1.140441E-03  1.147284E-03  1.154167E-03  1.161092E-03  1.168059E-03
  1.175067E-03  1.182118E-03  1.189210E-03  1.196346E-03  1.203524E-03  1.210745E-03  1.218009E-03  1.225317E-03
  1.232669E-03  1.240065E-03  1.247506E-03  1.254991E-03  1.262521E-03  1.270096E-03  1.277716E-03  1.285383E-03
  1.293095E-03  1.300853E-03  1.308659E-03  1.316511E-03  1.324410E-03  1.332356E-03  1.340350E-03  1.348392E-03
  1.356483E-03  1.364622E-03  1.372809E-03  1.381046E-03  1.389332E-03  1.397668E-03  1.406054E-03  1.414491E-03
  1.422978E-03  1.431516E-03  1.440105E-03  1.448745E-03  1.457438E-03  1.466182E-03  1.474979E-03  1.483829E-03
  1.492732E-03  1.501689E-03  1.510699E-03  1.519763E-03  1.528882E-03  1.538055E-03  1.547283E-03  1.556567E-03
  1.565906E-03  1.575302E-03  1.584754E-03  1.594262E-03  1.603828E-03  1.613451E-03  1.623131E-03  1.632870E-03
  1.642667E-03  1.652523E-03  1.662439E-03  1.672413E-03  1.682448E-03  1.692542E-03  1.702698E-03  1.712914E-03
  1.723191E-03  1.733530E-03  1.743932E-03  1.754395E-03  1.764922E-03  1.775511E-03  1.786164E-03  1.796881E-03
  1.807662E-03  1.818508E-03  1.829419E-03  1.840396E-03  1.851438E-03  1.862547E-03  1.873722E-03  1.884965E-03
  1.896274E-03  1.907652E-03  1.919098E-03  1.930612E-03  1.942196E-03  1.953849E-03  1.965572E-03  1.977366E-03
  1.989230E-03  2.001165E-03  2.013172E-03  2.025251E-03  2.037403E-03  2.049627E-03  2.061925E-03  2.074297E-03
  2.086742E-03  2.099263E-03  2.111859E-03  2.124530E-03  2.137277E-03  2.150101E-03  2.163001E-03  2.175979E-03
  2.189035E-03  2.202169E-03  2.215382E-03  2.228675E-03  2.242047E-03  2.255499E-03  2.269032E-03  2.282646E-03
  2.296342E-03  2.310120E-03  2.323981E-03  2.337925E-03  2.351952E-03  2.366064E-03  2.380260E-03  2.394542E-03
  2.408909E-03  2.423362E-03  2.437903E-03  2.452530E-03  2.467245E-03  2.482049E-03  2.496941E-03  2.511923E-03
  2.526994E-03  2.542156E-03  2.557409E-03  2.572754E-03  2.588190E-03  2.603719E-03  2.619342E-03  2.635058E-03
  2.650868E-03  2.666773E-03  2.682774E-03  2.698870E-03  2.715064E-03  2.731354E-03  2.747742E-03  2.764229E-03
  2.780814E-03  2.797499E-03  2.814284E-03  2.831170E-03  2.848157E-03  2.865245E-03  2.882437E-03  2.899732E-03
  2.917130E-03  2.934633E-03  2.952241E-03  2.969954E-03  2.987774E-03  3.005700E-03  3.023735E-03  3.041877E-03
  3.060128E-03  3.078489E-03  3.096960E-03  3.115542E-03  3.134235E-03  3.153040E-03  3.171959E-03  3.190990E-03
  3.210136E-03  3.229397E-03  3.248773E-03  3.268266E-03  3.287876E-03  3.307603E-03  3.327449E-03  3.347413E-03
  3.367498E-03  3.387703E-03  3.408029E-03  3.428477E-03  3.449048E-03  3.469742E-03  3.490561E-03  3.511504E-03
  3.532573E-03  3.553769E-03  3.575091E-03  3.596542E-03  3.618121E-03  3.639830E-03  3.661669E-03  3.683639E-03
  3.705741E-03  3.727975E-03  3.750343E-03  3.772845E-03  3.795482E-03  3.818255E-03  3.841164E-03  3.864211E-03
  3.887397E-03  3.910721E-03  3.934185E-03  3.957790E-03  3.981537E-03  4.005426E-03  4.029459E-03  4.053636E-03
  4.077958E-03  4.102425E-03  4.127040E-03  4.151802E-03  4.176713E-03  4.201773E-03  4.226984E-03  4.252346E-03
  4.277860E-03  4.303527E-03  4.329348E-03  4.355324E-03  4.381456E-03  4.407745E-03  4.434191E-03  4.460796E-03
  4.487561E-03  4.514487E-03  4.541574E-03  4.568823E-03  4.596236E-03  4.623813E-03  4.651556E-03  4.679466E-03
  4.707542E-03  4.735788E-03  4.764202E-03  4.792788E-03  4.821544E-03  4.850474E-03  4.879576E-03  4.908854E-03
  4.938307E-03  4.967937E-03  4.997744E-03  5.027731E-03  5.057897E-03  5.088245E-03  5.118774E-03  5.149487E-03
  5.180384E-03  5.211466E-03  5.242735E-03  5.274191E-03  5.305836E-03  5.337671E-03  5.369697E-03  5.401916E-03
  5.434327E-03  5.466933E-03  5.499735E-03  5.532733E-03  5.565929E-03  5.599325E-03  5.632921E-03  5.666718E-03
  5.700719E-03  5.734923E-03  5.769333E-03  5.803949E-03  5.838772E-03  5.873805E-03  5.909048E-03  5.944502E-03
  5.980169E-03  6.016050E-03  6.052146E-03  6.088459E-03  6.124990E-03  6.161740E-03  6.198710E-03  6.235903E-03
  6.273318E-03  6.310958E-03  6.348824E-03  6.386917E-03  6.425238E-03  6.463790E-03  6.502572E-03  6.541588E-03
  6.580837E-03  6.620322E-03  6.660044E-03  6.700005E-03  6.740205E-03  6.780646E-03  6.821330E-03  6.862258E-03
  6.903431E-03  6.944852E-03  6.986521E-03  7.028440E-03  7.070611E-03  7.113034E-03  7.155713E-03  7.198647E-03
  7.241839E-03  7.285290E-03  7.329001E-03  7.372975E-03  7.417213E-03  7.461717E-03  7.506487E-03  7.551526E-03
  7.596835E-03  7.642416E-03  7.688271E-03  7.734400E-03  7.780807E-03  7.827491E-03  7.874456E-03  7.921703E-03
  7.969233E-03  8.017049E-03  8.065151E-03  8.113542E-03  8.162223E-03  8.211196E-03  8.260464E-03  8.310026E-03
  8.359887E-03  8.410046E-03  8.460506E-03  8.511269E-03  8.562337E-03  8.613711E-03  8.665393E-03  8.717385E-03
  8.769690E-03  8.822308E-03  8.875242E-03  8.928493E-03  8.982064E-03  9.035957E-03  9.090172E-03  9.144713E-03
  9.199582E-03  9.254779E-03  9.310308E-03  9.366170E-03  9.422367E-03  9.478901E-03  9.535774E-03  9.592989E-03
  9.650547E-03  9.708450E-03  9.766701E-03  9.825301E-03  9.884253E-03  9.943558E-03  1.000322E-02  1.006324E-02
  1.012362E-02  1.018436E-02  1.024547E-02  1.030694E-02  1.036878E-02  1.043099E-02  1.049358E-02  1.055654E-02
  1.061988E-02  1.068360E-02  1.074770E-02  1.081219E-02  1.087706E-02  1.094232E-02  1.100798E-02  1.107402E-02
  1.114047E-02  1.120731E-02  1.127456E-02  1.134220E-02  1.141026E-02  1.147872E-02  1.154759E-02  1.161688E-02
  1.168658E-02  1.175670E-02  1.182724E-02  1.189820E-02  1.196959E-02  1.204141E-02  1.211365E-02  1.218634E-02
  1.225945E-02  1.233301E-02  1.240701E-02  1.248145E-02  1.255634E-02  1.263168E-02  1.270747E-02  1.278371E-02
  1.286042E-02  1.293758E-02  1.301520E-02  1.309329E-02  1.317185E-02  1.325089E-02  1.333039E-02  1.341037E-02
  1.349084E-02  1.357178E-02  1.365321E-02  1.373513E-02  1.381754E-02  1.390045E-02  1.398385E-02  1.406775E-02
  1.415216E-02  1.423707E-02  1.432249E-02  1.440843E-02  1.449488E-02  1.458185E-02  1.466934E-02  1.475736E-02
  1.484590E-02  1.493498E-02  1.502459E-02  1.511473E-02  1.520542E-02  1.529665E-02  1.538843E-02  1.548076E-02
  1.557365E-02  1.566709E-02  1.576109E-02  1.585566E-02  1.595079E-02  1.604650E-02  1.614278E-02  1.623963E-02
  1.633707E-02  1.643509E-02  1.653371E-02  1.663291E-02  1.673270E-02  1.683310E-02  1.693410E-02  1.703570E-02
  1.713792E-02  1.724075E-02  1.734419E-02  1.744826E-02  1.755295E-02  1.765826E-02  1.776421E-02  1.787080E-02
  1.797802E-02  1.808589E-02  1.819441E-02  1.830357E-02  1.841339E-02  1.852387E-02  1.863502E-02  1.874683E-02
  1.885931E-02  1.897246E-02  1.908630E-02  1.920082E-02  1.931602E-02  1.943192E-02  1.954851E-02  1.966580E-02
  1.978380E-02  1.990250E-02  2.002191E-02  2.014204E-02  2.026290E-02  2.038447E-02  2.050678E-02  2.062982E-02
  2.075360E-02  2.087812E-02  2.100339E-02  2.112941E-02  2.125619E-02  2.138372E-02  2.151203E-02  2.164110E-02
  2.177095E-02  2.190157E-02  2.203298E-02  2.216518E-02  2.229817E-02  2.243196E-02  2.256655E-02  2.270195E-02
  2.283816E-02  2.297519E-02  2.311304E-02  2.325172E-02  2.339123E-02  2.353158E-02  2.367277E-02  2.381480E-02
  2.395769E-02  2.410144E-02  2.424605E-02  2.439152E-02  2.453787E-02  2.468510E-02  2.483321E-02  2.498221E-02
  2.513210E-02  2.528290E-02  2.543459E-02  2.558720E-02  2.574072E-02  2.589517E-02  2.605054E-02  2.620684E-02
  2.636408E-02  2.652227E-02  2.668140E-02  2.684149E-02  2.700254E-02  2.716455E-02  2.732754E-02  2.749151E-02
  2.765646E-02  2.782239E-02  2.798933E-02  2.815727E-02  2.832621E-02  2.849617E-02  2.866714E-02  2.883915E-02
  2.901218E-02  2.918625E-02  2.936137E-02  2.953754E-02  2.971476E-02  2.989305E-02  3.007241E-02  3.025285E-02
  3.043436E-02  3.061697E-02  3.080067E-02  3.098548E-02  3.117139E-02  3.135842E-02  3.154657E-02  3.173585E-02
  3.192626E-02  3.211782E-02  3.231053E-02  3.250439E-02  3.269942E-02  3.289561E-02  3.309299E-02  3.329154E-02
  3.349129E-02  3.369224E-02  3.389439E-02  3.409776E-02  3.430235E-02  3.450816E-02  3.471521E-02  3.492350E-02
  3.513304E-02  3.534384E-02  3.555590E-02  3.576924E-02  3.598385E-02  3.619976E-02  3.641696E-02  3.663546E-02
  3.685527E-02  3.707640E-02  3.729886E-02  3.752265E-02  3.774779E-02  3.797428E-02  3.820212E-02  3.843133E-02
  3.866192E-02  3.889389E-02  3.912726E-02  3.936202E-02  3.959819E-02  3.983578E-02  4.007480E-02  4.031525E-02
  4.055714E-02  4.080048E-02  4.104528E-02  4.129155E-02  4.153930E-02  4.178854E-02  4.203927E-02  4.229151E-02
  4.254526E-02  4.280053E-02  4.305733E-02  4.331567E-02  4.357557E-02  4.383702E-02  4.410004E-02  4.436464E-02
  4.463083E-02  4.489862E-02  4.516801E-02  4.543902E-02  4.571165E-02  4.598592E-02  4.626184E-02  4.653941E-02
  4.681864E-02  4.709956E-02  4.738215E-02  4.766645E-02  4.795244E-02  4.824016E-02  4.852960E-02  4.882078E-02
  4.911370E-02  4.940839E-02  4.970484E-02  5.000306E-02  5.030308E-02  5.060490E-02  5.090853E-02  5.121398E-02
  5.152127E-02  5.183039E-02  5.214138E-02  5.245422E-02  5.276895E-02  5.308556E-02  5.340408E-02  5.372450E-02
  5.404685E-02  5.437113E-02  5.469736E-02  5.502554E-02  5.535569E-02  5.568783E-02  5.602195E-02  5.635809E-02
  5.669623E-02  5.703641E-02  5.737863E-02  5.772290E-02  5.806924E-02  5.841765E-02  5.876816E-02  5.912077E-02
  5.947549E-02  5.983235E-02  6.019134E-02  6.055249E-02  6.091580E-02  6.128130E-02  6.164899E-02  6.201888E-02
  6.239099E-02  6.276534E-02  6.314193E-02  6.352078E-02  6.390191E-02  6.428532E-02  6.467103E-02  6.505906E-02
  6.544941E-02  6.584211E-02  6.623716E-02  6.663458E-02  6.703439E-02  6.743660E-02  6.784122E-02  6.824827E-02
  6.865776E-02  6.906970E-02  6.948412E-02  6.990102E-02  7.032043E-02  7.074235E-02  7.116681E-02  7.159381E-02
  7.202337E-02  7.245551E-02  7.289024E-02  7.332759E-02  7.376755E-02  7.421016E-02  7.465542E-02  7.510335E-02
  7.555397E-02  7.600729E-02  7.646334E-02  7.692212E-02  7.738365E-02  7.784795E-02  7.831504E-02  7.878493E-02
  7.925764E-02  7.973319E-02  8.021158E-02  8.069285E-02  8.117701E-02  8.166407E-02  8.215406E-02  8.264698E-02
  8.314286E-02  8.364172E-02  8.414357E-02  8.464843E-02  8.515632E-02  8.566726E-02  8.618127E-02  8.669835E-02
  8.721854E-02  8.774185E-02  8.826831E-02  8.879792E-02  8.933070E-02  8.986669E-02  9.040589E-02  9.094832E-02
  9.149401E-02  9.204298E-02  9.259523E-02  9.315081E-02  9.370971E-02  9.427197E-02  9.483760E-02  9.540663E-02
  9.597907E-02  9.655494E-02  9.713427E-02  9.771708E-02  9.830338E-02  9.889320E-02  9.948656E-02  1.000835E-01
  1.006840E-01  1.012881E-01  1.018958E-01  1.025072E-01  1.031222E-01  1.037410E-01  1.043634E-01  1.049896E-01
  1.056195E-01  1.062532E-01  1.068908E-01  1.075321E-01  1.081773E-01  1.088264E-01  1.094793E-01  1.101362E-01
  1.107970E-01  1.114618E-01  1.121306E-01  1.128034E-01  1.134802E-01  1.141611E-01  1.148460E-01  1.155351E-01
  1.162283E-01  1.169257E-01  1.176272E-01  1.183330E-01  1.190430E-01  1.197572E-01  1.204758E-01  1.211986E-01
  1.219258E-01  1.226574E-01  1.233933E-01  1.241337E-01  1.248785E-01  1.256278E-01  1.263815E-01  1.271398E-01
  1.279027E-01  1.286701E-01  1.294421E-01  1.302188E-01  1.310001E-01  1.317861E-01  1.325768E-01  1.333722E-01
  1.341725E-01  1.349775E-01  1.357874E-01  1.366021E-01  1.374217E-01  1.382462E-01  1.390757E-01  1.399102E-01
  1.407496E-01  1.415941E-01  1.424437E-01  1.432984E-01  1.441582E-01  1.450231E-01  1.458932E-01  1.467686E-01
  1.476492E-01  1.485351E-01  1.494263E-01  1.503229E-01  1.512248E-01  1.521322E-01  1.530450E-01  1.539632E-01
  1.548870E-01  1.558163E-01  1.567512E-01  1.576917E-01  1.586379E-01  1.595897E-01  1.605472E-01  1.615105E-01
  1.624796E-01  1.634545E-01  1.644352E-01  1.654218E-01  1.664143E-01  1.674128E-01  1.684173E-01  1.694278E-01
  1.704444E-01  1.714670E-01  1.724958E-01  1.735308E-01  1.745720E-01  1.756194E-01  1.766731E-01  1.777332E-01
  1.787996E-01  1.798724E-01  1.809516E-01  1.820373E-01  1.831296E-01  1.842283E-01  1.853337E-01  1.864457E-01
  1.875644E-01  1.886898E-01  1.898219E-01  1.909608E-01  1.921066E-01  1.932592E-01  1.944188E-01  1.955853E-01
  1.967588E-01  1.979394E-01  1.991270E-01  2.003218E-01  2.015237E-01  2.027328E-01  2.039492E-01  2.051729E-01
  2.064040E-01  2.076424E-01  2.088883E-01  2.101416E-01  2.114024E-01  2.126708E-01  2.139469E-01  2.152306E-01
  2.165219E-01  2.178211E-01  2.191280E-01  2.204428E-01  2.217654E-01  2.230960E-01  2.244346E-01  2.257812E-01
  2.271359E-01  2.284987E-01  2.298697E-01  2.312489E-01  2.326364E-01  2.340322E-01  2.354364E-01  2.368490E-01
  2.382701E-01  2.396997E-01  2.411379E-01  2.425848E-01  2.440403E-01  2.455045E-01  2.469775E-01  2.484594E-01
  2.499502E-01  2.514499E-01  2.529586E-01  2.544763E-01  2.560032E-01  2.575392E-01  2.590844E-01  2.606389E-01
  2.622028E-01  2.637760E-01  2.653586E-01  2.669508E-01  2.685525E-01  2.701638E-01  2.717848E-01  2.734155E-01
  2.750560E-01  2.767063E-01  2.783666E-01  2.800368E-01  2.817170E-01  2.834073E-01  2.851077E-01  2.868184E-01
  2.885393E-01  2.902705E-01  2.920122E-01  2.937642E-01  2.955268E-01  2.973000E-01  2.990838E-01  3.008783E-01
  3.026835E-01  3.044997E-01  3.063266E-01  3.081646E-01  3.100136E-01  3.118737E-01  3.137449E-01  3.156274E-01
  3.175212E-01  3.194263E-01  3.213428E-01  3.232709E-01  3.252105E-01  3.271618E-01  3.291248E-01  3.310995E-01
  3.330861E-01  3.350846E-01  3.370951E-01  3.391177E-01  3.411524E-01  3.431993E-01  3.452585E-01  3.473301E-01
  3.494140E-01  3.515105E-01  3.536196E-01  3.557413E-01  3.578758E-01  3.600230E-01  3.621831E-01  3.643562E-01
  3.665424E-01  3.687416E-01  3.709541E-01  3.731798E-01  3.754189E-01  3.776714E-01  3.799374E-01  3.822171E-01
  3.845104E-01  3.868174E-01  3.891383E-01  3.914732E-01  3.938220E-01  3.961849E-01  3.985620E-01  4.009534E-01
  4.033591E-01  4.057793E-01  4.082140E-01  4.106632E-01  4.131272E-01  4.156060E-01  4.180996E-01  4.206082E-01
  4.231319E-01  4.256707E-01  4.282247E-01  4.307940E-01  4.333788E-01  4.359791E-01  4.385949E-01  4.412265E-01
  4.438739E-01  4.465371E-01  4.492163E-01  4.519116E-01  4.546231E-01  4.573508E-01  4.600950E-01  4.628555E-01
  4.656327E-01  4.684264E-01  4.712370E-01  4.740644E-01  4.769088E-01  4.797703E-01  4.826489E-01  4.855448E-01
  4.884581E-01  4.913888E-01  4.943371E-01  4.973032E-01  5.002870E-01  5.032887E-01  5.063084E-01  5.093463E-01
  5.124024E-01  5.154768E-01  5.185696E-01  5.216811E-01  5.248111E-01  5.279600E-01  5.311278E-01  5.343145E-01
  5.375204E-01  5.407455E-01  5.439900E-01  5.472540E-01  5.505375E-01  5.538407E-01  5.571637E-01  5.605067E-01
  5.638698E-01  5.672530E-01  5.706565E-01  5.740804E-01  5.775249E-01  5.809901E-01  5.844760E-01  5.879829E-01
  5.915108E-01  5.950598E-01  5.986302E-01  6.022220E-01  6.058353E-01  6.094703E-01  6.131271E-01  6.168059E-01
  6.205067E-01  6.242298E-01  6.279752E-01  6.317430E-01  6.355335E-01  6.393467E-01  6.431827E-01  6.470418E-01
  6.509241E-01  6.548296E-01  6.587586E-01  6.627112E-01  6.666874E-01  6.706876E-01  6.747117E-01  6.787600E-01
  6.828325E-01  6.869295E-01  6.910511E-01  6.951974E-01  6.993686E-01  7.035648E-01  7.077862E-01  7.120329E-01
  7.163051E-01  7.206029E-01  7.249265E-01  7.292761E-01  7.336518E-01  7.380537E-01  7.424820E-01  7.469369E-01
  7.514185E-01  7.559270E-01  7.604626E-01  7.650254E-01  7.696155E-01  7.742332E-01  7.788786E-01  7.835519E-01
  7.882532E-01  7.929827E-01  7.977406E-01  8.025270E-01  8.073422E-01  8.121863E-01  8.170594E-01  8.219617E-01
  8.268935E-01  8.318549E-01  8.368460E-01  8.418671E-01  8.469183E-01  8.519998E-01  8.571118E-01  8.622544E-01
  8.674280E-01  8.726325E-01  8.778683E-01  8.831355E-01  8.884344E-01  8.937650E-01  8.991276E-01  9.045223E-01
  9.099495E-01  9.154092E-01  9.209016E-01  9.264270E-01  9.319856E-01  9.375775E-01  9.432030E-01  9.488622E-01
  9.545553E-01  9.602827E-01  9.660444E-01  9.718406E-01  9.776717E-01  9.835377E-01  9.894389E-01  9.953756E-01
  1.001348E+00  1.007356E+00  1.013400E+00  1.019480E+00  1.025597E+00  1.031751E+00  1.037941E+00  1.044169E+00
  1.050434E+00  1.056737E+00  1.063077E+00  1.069456E+00  1.075872E+00  1.082328E+00  1.088822E+00  1.095354E+00
  1.101927E+00  1.108538E+00  1.115189E+00  1.121880E+00  1.128612E+00  1.135383E+00  1.142196E+00  1.149049E+00
  1.155943E+00  1.162879E+00  1.169856E+00  1.176875E+00  1.183937E+00  1.191040E+00  1.198186E+00  1.205376E+00
  1.212608E+00  1.219883E+00  1.227203E+00  1.234566E+00  1.241973E+00  1.249425E+00  1.256922E+00  1.264463E+00
  1.272050E+00  1.279682E+00  1.287360E+00  1.295085E+00  1.302855E+00  1.310672E+00  1.318536E+00  1.326447E+00
  1.334406E+00  1.342413E+00  1.350467E+00  1.358570E+00  1.366721E+00  1.374922E+00  1.383171E+00  1.391470E+00
  1.399819E+00  1.408218E+00  1.416667E+00  1.425167E+00  1.433718E+00  1.442321E+00  1.450974E+00  1.459680E+00
  1.468438E+00  1.477249E+00  1.486113E+00  1.495029E+00  1.503999E+00  1.513023E+00  1.522101E+00  1.531234E+00
  1.540422E+00  1.549664E+00  1.558962E+00  1.568316E+00  1.577726E+00  1.587192E+00  1.596715E+00  1.606295E+00
  1.615933E+00  1.625629E+00  1.635383E+00  1.645195E+00  1.655066E+00  1.664996E+00  1.674986E+00  1.685036E+00
  1.695147E+00  1.705317E+00  1.715549E+00  1.725843E+00  1.736198E+00  1.746615E+00  1.757095E+00  1.767637E+00
  1.778243E+00  1.788912E+00  1.799646E+00  1.810444E+00  1.821306E+00  1.832234E+00  1.843228E+00  1.854287E+00
  1.865413E+00  1.876605E+00  1.887865E+00  1.899192E+00  1.910587E+00  1.922051E+00  1.933583E+00  1.945185E+00
  1.956856E+00  1.968597E+00  1.980408E+00  1.992291E+00  2.004245E+00  2.016270E+00  2.028368E+00  2.040538E+00
  2.052781E+00  2.065098E+00  2.077488E+00  2.089953E+00  2.102493E+00  2.115108E+00  2.127799E+00  2.140565E+00
  2.153409E+00  2.166329E+00  2.179327E+00  2.192403E+00  2.205558E+00  2.218791E+00  2.232104E+00  2.245496E+00
  2.258969E+00  2.272523E+00  2.286158E+00  2.299875E+00  2.313675E+00  2.327557E+00  2.341522E+00  2.355571E+00
  2.369704E+00  2.383923E+00  2.398226E+00  2.412616E+00  2.427091E+00  2.441654E+00  2.456304E+00  2.471042E+00
  2.485868E+00  2.500783E+00  2.515788E+00  2.530882E+00  2.546068E+00  2.561344E+00  2.576712E+00  2.592172E+00
  2.607726E+00  2.623372E+00  2.639112E+00  2.654947E+00  2.670876E+00  2.686902E+00  2.703023E+00  2.719241E+00
  2.735557E+00  2.751970E+00  2.768482E+00  2.785093E+00  2.801803E+00  2.818614E+00  2.835526E+00  2.852539E+00
  2.869654E+00  2.886872E+00  2.904193E+00  2.921619E+00  2.939148E+00  2.956783E+00  2.974524E+00  2.992371E+00
  3.010325E+00  3.028387E+00  3.046557E+00  3.064837E+00  3.083226E+00  3.101725E+00  3.120336E+00  3.139058E+00
  3.157892E+00  3.176839E+00  3.195900E+00  3.215076E+00  3.234366E+00  3.253772E+00  3.273295E+00  3.292935E+00
  3.312692E+00  3.332569E+00  3.352564E+00  3.372679E+00  3.392915E+00  3.413273E+00  3.433753E+00  3.454355E+00
  3.475081E+00  3.495932E+00  3.516907E+00  3.538009E+00  3.559237E+00  3.580592E+00  3.602076E+00  3.623688E+00
  3.645430E+00  3.667303E+00  3.689307E+00  3.711443E+00  3.733711E+00  3.756113E+00  3.778650E+00  3.801322E+00
  3.824130E+00  3.847075E+00  3.870157E+00  3.893378E+00  3.916738E+00  3.940239E+00  3.963880E+00  3.987664E+00